 Entering Gaussian System, Link 0=g09
 Initial command:
 /share/programs/GAUSSIAN/64/g09/l1.exe "/scratch/yannick.28356/Gau-26508.inp" -scrdir="/scratch/yannick.28356/"
 Entering Link 1 = /share/programs/GAUSSIAN/64/g09/l1.exe PID=     26519.
  
 Copyright (c) 1988,1990,1992,1993,1995,1998,2003,2009,2013,
            Gaussian, Inc.  All Rights Reserved.
  
 This is part of the Gaussian(R) 09 program.  It is based on
 the Gaussian(R) 03 system (copyright 2003, Gaussian, Inc.),
 the Gaussian(R) 98 system (copyright 1998, Gaussian, Inc.),
 the Gaussian(R) 94 system (copyright 1995, Gaussian, Inc.),
 the Gaussian 92(TM) system (copyright 1992, Gaussian, Inc.),
 the Gaussian 90(TM) system (copyright 1990, Gaussian, Inc.),
 the Gaussian 88(TM) system (copyright 1988, Gaussian, Inc.),
 the Gaussian 86(TM) system (copyright 1986, Carnegie Mellon
 University), and the Gaussian 82(TM) system (copyright 1983,
 Carnegie Mellon University). Gaussian is a federally registered
 trademark of Gaussian, Inc.
  
 This software contains proprietary and confidential information,
 including trade secrets, belonging to Gaussian, Inc.
  
 This software is provided under written license and may be
 used, copied, transmitted, or stored only in accord with that
 written license.
  
 The following legend is applicable only to US Government
 contracts under FAR:
  
                    RESTRICTED RIGHTS LEGEND
  
 Use, reproduction and disclosure by the US Government is
 subject to restrictions as set forth in subparagraphs (a)
 and (c) of the Commercial Computer Software - Restricted
 Rights clause in FAR 52.227-19.
  
 Gaussian, Inc.
 340 Quinnipiac St., Bldg. 40, Wallingford CT 06492
  
  
 ---------------------------------------------------------------
 Warning -- This program may not be used in any manner that
 competes with the business of Gaussian, Inc. or will provide
 assistance to any competitor of Gaussian, Inc.  The licensee
 of this program is prohibited from giving any competitor of
 Gaussian, Inc. access to this program.  By using this program,
 the user acknowledges that Gaussian, Inc. is engaged in the
 business of creating and licensing software in the field of
 computational chemistry and represents and warrants to the
 licensee that it is not a competitor of Gaussian, Inc. and that
 it will not use this program in any manner prohibited above.
 ---------------------------------------------------------------
  

 Cite this work as:
 Gaussian 09, Revision D.01,
 M. J. Frisch, G. W. Trucks, H. B. Schlegel, G. E. Scuseria, 
 M. A. Robb, J. R. Cheeseman, G. Scalmani, V. Barone, B. Mennucci, 
 G. A. Petersson, H. Nakatsuji, M. Caricato, X. Li, H. P. Hratchian, 
 A. F. Izmaylov, J. Bloino, G. Zheng, J. L. Sonnenberg, M. Hada, 
 M. Ehara, K. Toyota, R. Fukuda, J. Hasegawa, M. Ishida, T. Nakajima, 
 Y. Honda, O. Kitao, H. Nakai, T. Vreven, J. A. Montgomery, Jr., 
 J. E. Peralta, F. Ogliaro, M. Bearpark, J. J. Heyd, E. Brothers, 
 K. N. Kudin, V. N. Staroverov, T. Keith, R. Kobayashi, J. Normand, 
 K. Raghavachari, A. Rendell, J. C. Burant, S. S. Iyengar, J. Tomasi, 
 M. Cossi, N. Rega, J. M. Millam, M. Klene, J. E. Knox, J. B. Cross, 
 V. Bakken, C. Adamo, J. Jaramillo, R. Gomperts, R. E. Stratmann, 
 O. Yazyev, A. J. Austin, R. Cammi, C. Pomelli, J. W. Ochterski, 
 R. L. Martin, K. Morokuma, V. G. Zakrzewski, G. A. Voth, 
 P. Salvador, J. J. Dannenberg, S. Dapprich, A. D. Daniels, 
 O. Farkas, J. B. Foresman, J. V. Ortiz, J. Cioslowski, 
 and D. J. Fox, Gaussian, Inc., Wallingford CT, 2013.
 
 ******************************************
 Gaussian 09:  ES64L-G09RevD.01 24-Apr-2013
                14-Aug-2020 
 ******************************************
 %nproc=8
 Will use up to    8 processors via shared memory.
 %mem=1000MB
 ----------------------------------------
 # rb3lyp/6-311+g** NMR geom=connectivity
 ----------------------------------------
 1/38=1,57=2/1;
 2/12=2,17=6,18=5,40=1/2;
 3/5=4,6=6,7=111,11=2,16=1,25=1,30=1,74=-5,116=1/1,2,8,3;
 4//1;
 5/5=2,38=5/2;
 8/6=1,10=90,11=11/1;
 10/13=100,45=16/2;
 6/7=2,8=2,9=2,10=2,28=1/1;
 99/9=1/99;
 -----
 Title
 -----
 Symbolic Z-matrix:
 Charge =  0 Multiplicity = 1
 C                    -4.05006  -0.57719   0.81367 
 H                    -5.02638  -1.00827   1.00248 
 C                    -3.93816   0.66178   0.24009 
 H                    -4.82524   1.23389  -0.01113 
 C                    -2.67684   1.24332   0.00576 
 C                    -1.49741   0.50515   0.28483 
 C                    -1.65083  -0.73387   0.9404 
 H                    -0.77136  -1.2731    1.26338 
 C                    -2.88985  -1.2624    1.19943 
 H                    -2.96837  -2.21246   1.71527 
 C                    -2.57732   2.59637  -0.41929 
 H                    -3.48707   3.14122  -0.64741 
 C                    -1.37419   3.21479  -0.4364 
 H                    -1.29973   4.2742   -0.65781 
 C                    -0.17195   2.49941  -0.17346 
 C                    -0.20439   1.10184   0.01927 
 C                     1.05135   3.20426  -0.06762 
 H                     1.04273   4.28195  -0.1897 
 C                     2.19421   2.54874   0.25796 
 H                     3.11685   3.09128   0.43347 
 C                     2.22165   1.13366   0.2935 
 C                     1.04869   0.39455   0.03024 
 C                     3.44834   0.46146   0.55739 
 H                     4.30958   1.06061   0.83348 
 C                     3.54273  -0.88559   0.47495 
 H                     4.47315  -1.39397   0.70388 
 C                     2.44901  -1.64744  -0.01963 
 C                     1.21507  -1.00573  -0.30136 
 C                     0.25311  -1.74344  -1.02166 
 H                    -0.65414  -1.25351  -1.34628 
 C                     0.44942  -3.06286  -1.34138 
 H                    -0.30832  -3.59443  -1.90541 
 C                     1.62517  -3.7208   -0.95525 
 H                     1.767    -4.76874  -1.1927 
 C                     2.61099  -3.01442  -0.31831 
 H                     3.55256  -3.49028  -0.06464 
 Bq                   -1.41702   1.86015  -0.11988 
 Bq                   -3.98164  -0.29331   1.45979 
 Bq                   -3.97395  -0.3424    1.26606 
 Bq                   -3.98548  -0.26876   1.55665 
 Bq                   -3.97011  -0.36695   1.16919 
 Bq                   -3.98932  -0.24421   1.65351 
 Bq                   -3.96627  -0.3915    1.07233 
 Bq                   -3.99316  -0.21966   1.75038 
 Bq                   -3.96243  -0.41605   0.97547 
 Bq                   -3.99701  -0.19511   1.84724 
 Bq                   -3.95859  -0.4406    0.8786 
 Bq                   -3.9778   -0.31785   1.36292 
 Bq                   -3.97677   0.19139   1.33714 
 Bq                   -3.96909   0.1423    1.14341 
 Bq                   -3.98062   0.21594   1.434 
 Bq                   -3.96525   0.11775   1.04654 
 Bq                   -3.98446   0.24049   1.53086 
 Bq                   -3.96141   0.0932    0.94968 
 Bq                   -3.9883    0.26504   1.62773 
 Bq                   -3.95756   0.06865   0.85282 
 Bq                   -3.99214   0.28959   1.72459 
 Bq                   -3.95372   0.0441    0.75595 
 Bq                   -3.97293   0.16684   1.24027 
 Bq                   -3.97191   0.67609   1.21449 
 Bq                   -3.96422   0.62699   1.02076 
 Bq                   -3.97575   0.70064   1.31135 
 Bq                   -3.96038   0.60245   0.92389 
 Bq                   -3.97959   0.72519   1.40821 
 Bq                   -3.95654   0.5779    0.82703 
 Bq                   -3.98343   0.74974   1.50508 
 Bq                   -3.9527    0.55335   0.73017 
 Bq                   -3.98728   0.77429   1.60194 
 Bq                   -3.94886   0.5288    0.6333 
 Bq                   -3.96807   0.65154   1.11762 
 Bq                   -3.96704   1.16079   1.09184 
 Bq                   -3.95936   1.11169   0.89811 
 Bq                   -3.97089   1.18534   1.1887 
 Bq                   -3.95552   1.08714   0.80124 
 Bq                   -3.97473   1.20989   1.28556 
 Bq                   -3.95168   1.0626    0.70438 
 Bq                   -3.97857   1.23444   1.38243 
 Bq                   -3.94783   1.03805   0.60752 
 Bq                   -3.98241   1.25899   1.47929 
 Bq                   -3.94399   1.0135    0.51065 
 Bq                   -3.9632    1.13624   0.99497 
 Bq                   -3.96218   1.64549   0.96919 
 Bq                   -3.9545    1.59639   0.77546 
 Bq                   -3.96602   1.67004   1.06605 
 Bq                   -3.95065   1.57184   0.67859 
 Bq                   -3.96986   1.69459   1.16291 
 Bq                   -3.94681   1.54729   0.58173 
 Bq                   -3.97371   1.71914   1.25978 
 Bq                   -3.94297   1.52274   0.48487 
 Bq                   -3.97755   1.74369   1.35664 
 Bq                   -3.93913   1.4982    0.388 
 Bq                   -3.95834   1.62094   0.87232 
 Bq                   -3.95731   2.13019   0.84653 
 Bq                   -3.94963   2.08109   0.65281 
 Bq                   -3.96116   2.15474   0.9434 
 Bq                   -3.94579   2.05654   0.55594 
 Bq                   -3.965     2.17929   1.04026 
 Bq                   -3.94195   2.03199   0.45908 
 Bq                   -3.96884   2.20384   1.13713 
 Bq                   -3.9381    2.00744   0.36222 
 Bq                   -3.97268   2.22839   1.23399 
 Bq                   -3.93426   1.98289   0.26535 
 Bq                   -3.95347   2.10564   0.74967 
 Bq                   -3.95245   2.61489   0.72388 
 Bq                   -3.94477   2.56579   0.53016 
 Bq                   -3.95629   2.63944   0.82075 
 Bq                   -3.94092   2.54124   0.43329 
 Bq                   -3.96013   2.66399   0.91761 
 Bq                   -3.93708   2.51669   0.33643 
 Bq                   -3.96398   2.68854   1.01448 
 Bq                   -3.93324   2.49214   0.23957 
 Bq                   -3.96782   2.71309   1.11134 
 Bq                   -3.9294    2.46759   0.1427 
 Bq                   -3.94861   2.59034   0.62702 
 Bq                   -3.94758   3.09959   0.60123 
 Bq                   -3.9399    3.05049   0.40751 
 Bq                   -3.95143   3.12414   0.6981 
 Bq                   -3.93606   3.02594   0.31064 
 Bq                   -3.95527   3.14869   0.79496 
 Bq                   -3.93222   3.00139   0.21378 
 Bq                   -3.95911   3.17324   0.89183 
 Bq                   -3.92838   2.97684   0.11692 
 Bq                   -3.96295   3.19779   0.98869 
 Bq                   -3.92453   2.95229   0.02005 
 Bq                   -3.94374   3.07504   0.50437 
 Bq                   -3.94272   3.58429   0.47858 
 Bq                   -3.93504   3.53519   0.28486 
 Bq                   -3.94656   3.60884   0.57545 
 Bq                   -3.93119   3.51064   0.18799 
 Bq                   -3.9504    3.63339   0.67231 
 Bq                   -3.92735   3.48609   0.09113 
 Bq                   -3.95425   3.65794   0.76918 
 Bq                   -3.92351   3.46154  -0.00573 
 Bq                   -3.95809   3.68249   0.86604 
 Bq                   -3.91967   3.43699  -0.1026 
 Bq                   -3.93888   3.55974   0.38172 
 Bq                   -3.93786   4.06899   0.35593 
 Bq                   -3.93017   4.01989   0.16221 
 Bq                   -3.9417    4.09354   0.4528 
 Bq                   -3.92633   3.99534   0.06534 
 Bq                   -3.94554   4.11809   0.54966 
 Bq                   -3.92249   3.97079  -0.03152 
 Bq                   -3.94938   4.14264   0.64653 
 Bq                   -3.91865   3.94624  -0.12838 
 Bq                   -3.95322   4.16718   0.74339 
 Bq                   -3.9148    3.92169  -0.22525 
 Bq                   -3.93401   4.04444   0.25907 
 Bq                   -3.93299   4.55369   0.23328 
 Bq                   -3.92531   4.50459   0.03956 
 Bq                   -3.93683   4.57824   0.33015 
 Bq                   -3.92146   4.48004  -0.05731 
 Bq                   -3.94067   4.60279   0.42701 
 Bq                   -3.91762   4.45549  -0.15417 
 Bq                   -3.94452   4.62733   0.52388 
 Bq                   -3.91378   4.43094  -0.25103 
 Bq                   -3.94836   4.65188   0.62074 
 Bq                   -3.90994   4.40639  -0.3479 
 Bq                   -3.92915   4.52914   0.13642 
 Bq                   -3.48203  -0.29331   1.4796 
 Bq                   -3.47435  -0.3424    1.28587 
 Bq                   -3.48587  -0.26876   1.57647 
 Bq                   -3.47051  -0.36695   1.18901 
 Bq                   -3.48972  -0.24421   1.67333 
 Bq                   -3.46666  -0.3915    1.09215 
 Bq                   -3.49356  -0.21966   1.77019 
 Bq                   -3.46282  -0.41605   0.99528 
 Bq                   -3.4974   -0.19511   1.86706 
 Bq                   -3.45898  -0.4406    0.89842 
 Bq                   -3.47819  -0.31785   1.38274 
 Bq                   -3.47717   0.19139   1.35695 
 Bq                   -3.46948   0.1423    1.16322 
 Bq                   -3.48101   0.21594   1.45382 
 Bq                   -3.46564   0.11775   1.06636 
 Bq                   -3.48485   0.24049   1.55068 
 Bq                   -3.4618    0.0932    0.9695 
 Bq                   -3.48869   0.26504   1.64754 
 Bq                   -3.45796   0.06865   0.87263 
 Bq                   -3.49253   0.28959   1.74441 
 Bq                   -3.45411   0.0441    0.77577 
 Bq                   -3.47332   0.16684   1.26009 
 Bq                   -3.4723    0.67609   1.2343 
 Bq                   -3.46462   0.62699   1.04057 
 Bq                   -3.47614   0.70064   1.33117 
 Bq                   -3.46078   0.60245   0.94371 
 Bq                   -3.47999   0.72519   1.42803 
 Bq                   -3.45693   0.5779    0.84685 
 Bq                   -3.48383   0.74974   1.52489 
 Bq                   -3.45309   0.55335   0.74998 
 Bq                   -3.48767   0.77429   1.62176 
 Bq                   -3.44925   0.5288    0.65312 
 Bq                   -3.46846   0.65154   1.13744 
 Bq                   -3.46744   1.16079   1.11165 
 Bq                   -3.45975   1.11169   0.91792 
 Bq                   -3.47128   1.18534   1.20852 
 Bq                   -3.45591   1.08714   0.82106 
 Bq                   -3.47512   1.20989   1.30538 
 Bq                   -3.45207   1.0626    0.7242 
 Bq                   -3.47896   1.23444   1.40224 
 Bq                   -3.44823   1.03805   0.62733 
 Bq                   -3.4828    1.25899   1.49911 
 Bq                   -3.44439   1.0135    0.53047 
 Bq                   -3.46359   1.13624   1.01479 
 Bq                   -3.46257   1.64549   0.989 
 Bq                   -3.45489   1.59639   0.79527 
 Bq                   -3.46641   1.67004   1.08587 
 Bq                   -3.45105   1.57184   0.69841 
 Bq                   -3.47026   1.69459   1.18273 
 Bq                   -3.4472    1.54729   0.60155 
 Bq                   -3.4741    1.71914   1.27959 
 Bq                   -3.44336   1.52274   0.50468 
 Bq                   -3.47794   1.74369   1.37646 
 Bq                   -3.43952   1.4982    0.40782 
 Bq                   -3.45873   1.62094   0.89214 
 Bq                   -3.45771   2.13019   0.86635 
 Bq                   -3.45002   2.08109   0.67262 
 Bq                   -3.46155   2.15474   0.96321 
 Bq                   -3.44618   2.05654   0.57576 
 Bq                   -3.46539   2.17929   1.06008 
 Bq                   -3.44234   2.03199   0.4789 
 Bq                   -3.46923   2.20384   1.15694 
 Bq                   -3.4385    2.00744   0.38203 
 Bq                   -3.47308   2.22839   1.25381 
 Bq                   -3.43466   1.98289   0.28517 
 Bq                   -3.45387   2.10564   0.76949 
 Bq                   -3.45284   2.61489   0.7437 
 Bq                   -3.44516   2.56579   0.54997 
 Bq                   -3.45668   2.63944   0.84056 
 Bq                   -3.44132   2.54124   0.45311 
 Bq                   -3.46053   2.66399   0.93743 
 Bq                   -3.43747   2.51669   0.35625 
 Bq                   -3.46437   2.68854   1.03429 
 Bq                   -3.43363   2.49214   0.25938 
 Bq                   -3.46821   2.71309   1.13116 
 Bq                   -3.42979   2.46759   0.16252 
 Bq                   -3.449     2.59034   0.64684 
 Bq                   -3.44798   3.09959   0.62105 
 
 Symmetry turned off:
 Cannot cope with ghost atoms or with translation vectors.
 Stoichiometry    C22H14
 Framework group  C1[X(C22H14)]
 NUMDOF-- NAT=    36 NAtoms=   236
 Deg. of freedom     0
 Full point group                 C1      NOp   1
                          Input orientation:                          
 ---------------------------------------------------------------------
 Center     Atomic      Atomic             Coordinates (Angstroms)
 Number     Number       Type             X           Y           Z
 ---------------------------------------------------------------------
      1          6           0       -4.050056   -0.577186    0.813671
      2          1           0       -5.026380   -1.008273    1.002476
      3          6           0       -3.938155    0.661780    0.240088
      4          1           0       -4.825242    1.233889   -0.011130
      5          6           0       -2.676841    1.243325    0.005758
      6          6           0       -1.497412    0.505153    0.284825
      7          6           0       -1.650833   -0.733873    0.940403
      8          1           0       -0.771365   -1.273097    1.263375
      9          6           0       -2.889855   -1.262404    1.199431
     10          1           0       -2.968371   -2.212456    1.715268
     11          6           0       -2.577319    2.596370   -0.419293
     12          1           0       -3.487073    3.141224   -0.647406
     13          6           0       -1.374190    3.214790   -0.436403
     14          1           0       -1.299732    4.274202   -0.657814
     15          6           0       -0.171949    2.499409   -0.173459
     16          6           0       -0.204392    1.101844    0.019269
     17          6           0        1.051349    3.204256   -0.067622
     18          1           0        1.042734    4.281950   -0.189700
     19          6           0        2.194209    2.548745    0.257958
     20          1           0        3.116853    3.091285    0.433473
     21          6           0        2.221647    1.133656    0.293499
     22          6           0        1.048693    0.394553    0.030241
     23          6           0        3.448336    0.461463    0.557394
     24          1           0        4.309579    1.060605    0.833485
     25          6           0        3.542735   -0.885593    0.474946
     26          1           0        4.473147   -1.393970    0.703882
     27          6           0        2.449005   -1.647445   -0.019632
     28          6           0        1.215070   -1.005726   -0.301357
     29          6           0        0.253111   -1.743444   -1.021659
     30          1           0       -0.654136   -1.253505   -1.346285
     31          6           0        0.449419   -3.062860   -1.341378
     32          1           0       -0.308316   -3.594431   -1.905406
     33          6           0        1.625173   -3.720797   -0.955254
     34          1           0        1.767005   -4.768740   -1.192702
     35          6           0        2.610987   -3.014418   -0.318305
     36          1           0        3.552561   -3.490281   -0.064637
     37          0           0       -1.417017    1.860148   -0.119884
     38          0           0       -3.981638   -0.293305    1.459786
     39          0           0       -3.973954   -0.342404    1.266058
     40          0           0       -3.985480   -0.268756    1.556649
     41          0           0       -3.970112   -0.366953    1.169195
     42          0           0       -3.989322   -0.244206    1.653513
     43          0           0       -3.966270   -0.391502    1.072331
     44          0           0       -3.993164   -0.219657    1.750377
     45          0           0       -3.962428   -0.416052    0.975467
     46          0           0       -3.997006   -0.195108    1.847240
     47          0           0       -3.958586   -0.440601    0.878604
     48          0           0       -3.977796   -0.317854    1.362922
     49          0           0       -3.976774    0.191394    1.337136
     50          0           0       -3.969090    0.142295    1.143408
     51          0           0       -3.980616    0.215943    1.433999
     52          0           0       -3.965248    0.117746    1.046545
     53          0           0       -3.984458    0.240493    1.530863
     54          0           0       -3.961406    0.093197    0.949681
     55          0           0       -3.988300    0.265042    1.627727
     56          0           0       -3.957564    0.068647    0.852817
     57          0           0       -3.992142    0.289591    1.724590
     58          0           0       -3.953722    0.044098    0.755954
     59          0           0       -3.972932    0.166845    1.240272
     60          0           0       -3.971909    0.676093    1.214485
     61          0           0       -3.964225    0.626995    1.020758
     62          0           0       -3.975751    0.700643    1.311349
     63          0           0       -3.960383    0.602445    0.923894
     64          0           0       -3.979593    0.725192    1.408213
     65          0           0       -3.956541    0.577896    0.827031
     66          0           0       -3.983435    0.749741    1.505076
     67          0           0       -3.952699    0.553347    0.730167
     68          0           0       -3.987277    0.774290    1.601940
     69          0           0       -3.948857    0.528797    0.633303
     70          0           0       -3.968067    0.651544    1.117622
     71          0           0       -3.967044    1.160792    1.091835
     72          0           0       -3.959360    1.111694    0.898108
     73          0           0       -3.970886    1.185342    1.188699
     74          0           0       -3.955518    1.087144    0.801244
     75          0           0       -3.974728    1.209891    1.285563
     76          0           0       -3.951676    1.062595    0.704381
     77          0           0       -3.978570    1.234440    1.382426
     78          0           0       -3.947834    1.038046    0.607517
     79          0           0       -3.982412    1.258990    1.479290
     80          0           0       -3.943992    1.013496    0.510653
     81          0           0       -3.963202    1.136243    0.994972
     82          0           0       -3.962179    1.645492    0.969185
     83          0           0       -3.954495    1.596393    0.775458
     84          0           0       -3.966021    1.670041    1.066049
     85          0           0       -3.950653    1.571844    0.678594
     86          0           0       -3.969863    1.694590    1.162912
     87          0           0       -3.946811    1.547294    0.581730
     88          0           0       -3.973705    1.719139    1.259776
     89          0           0       -3.942969    1.522745    0.484867
     90          0           0       -3.977547    1.743689    1.356640
     91          0           0       -3.939127    1.498196    0.388003
     92          0           0       -3.958337    1.620942    0.872321
     93          0           0       -3.957315    2.130191    0.846535
     94          0           0       -3.949631    2.081092    0.652808
     95          0           0       -3.961157    2.154740    0.943399
     96          0           0       -3.945789    2.056543    0.555944
     97          0           0       -3.964998    2.179289    1.040262
     98          0           0       -3.941947    2.031993    0.459080
     99          0           0       -3.968840    2.203839    1.137126
    100          0           0       -3.938105    2.007444    0.362217
    101          0           0       -3.972682    2.228388    1.233990
    102          0           0       -3.934263    1.982895    0.265353
    103          0           0       -3.953473    2.105641    0.749671
    104          0           0       -3.952450    2.614890    0.723885
    105          0           0       -3.944766    2.565791    0.530157
    106          0           0       -3.956292    2.639439    0.820748
    107          0           0       -3.940924    2.541242    0.433294
    108          0           0       -3.960134    2.663988    0.917612
    109          0           0       -3.937082    2.516693    0.336430
    110          0           0       -3.963976    2.688538    1.014476
    111          0           0       -3.933240    2.492143    0.239566
    112          0           0       -3.967818    2.713087    1.111339
    113          0           0       -3.929398    2.467594    0.142703
    114          0           0       -3.948608    2.590341    0.627021
    115          0           0       -3.947585    3.099589    0.601235
    116          0           0       -3.939901    3.050490    0.407507
    117          0           0       -3.951427    3.124138    0.698098
    118          0           0       -3.936059    3.025941    0.310644
    119          0           0       -3.955269    3.148688    0.794962
    120          0           0       -3.932217    3.001392    0.213780
    121          0           0       -3.959111    3.173237    0.891826
    122          0           0       -3.928375    2.976842    0.116916
    123          0           0       -3.962953    3.197786    0.988689
    124          0           0       -3.924533    2.952293    0.020053
    125          0           0       -3.943743    3.075040    0.504371
    126          0           0       -3.942720    3.584288    0.478585
    127          0           0       -3.935036    3.535190    0.284857
    128          0           0       -3.946562    3.608837    0.575448
    129          0           0       -3.931194    3.510640    0.187994
    130          0           0       -3.950404    3.633387    0.672312
    131          0           0       -3.927352    3.486091    0.091130
    132          0           0       -3.954246    3.657936    0.769176
    133          0           0       -3.923510    3.461542   -0.005734
    134          0           0       -3.958088    3.682485    0.866039
    135          0           0       -3.919668    3.436992   -0.102597
    136          0           0       -3.938878    3.559739    0.381721
    137          0           0       -3.937855    4.068987    0.355934
    138          0           0       -3.930171    4.019889    0.162207
    139          0           0       -3.941697    4.093537    0.452798
    140          0           0       -3.926329    3.995339    0.065343
    141          0           0       -3.945539    4.118086    0.549662
    142          0           0       -3.922488    3.970790   -0.031520
    143          0           0       -3.949381    4.142635    0.646525
    144          0           0       -3.918646    3.946241   -0.128384
    145          0           0       -3.953223    4.167185    0.743389
    146          0           0       -3.914804    3.921691   -0.225248
    147          0           0       -3.934013    4.044438    0.259071
    148          0           0       -3.932991    4.553686    0.233284
    149          0           0       -3.925307    4.504588    0.039557
    150          0           0       -3.936833    4.578236    0.330148
    151          0           0       -3.921465    4.480039   -0.057307
    152          0           0       -3.940675    4.602785    0.427012
    153          0           0       -3.917623    4.455489   -0.154170
    154          0           0       -3.944517    4.627334    0.523875
    155          0           0       -3.913781    4.430940   -0.251034
    156          0           0       -3.948359    4.651884    0.620739
    157          0           0       -3.909939    4.406391   -0.347898
    158          0           0       -3.929149    4.529137    0.136421
    159          0           0       -3.482031   -0.293305    1.479602
    160          0           0       -3.474347   -0.342404    1.285875
    161          0           0       -3.485873   -0.268756    1.576466
    162          0           0       -3.470505   -0.366953    1.189011
    163          0           0       -3.489715   -0.244206    1.673329
    164          0           0       -3.466663   -0.391502    1.092147
    165          0           0       -3.493557   -0.219657    1.770193
    166          0           0       -3.462821   -0.416052    0.995284
    167          0           0       -3.497399   -0.195108    1.867057
    168          0           0       -3.458979   -0.440601    0.898420
    169          0           0       -3.478189   -0.317854    1.382738
    170          0           0       -3.477166    0.191394    1.356952
    171          0           0       -3.469482    0.142295    1.163225
    172          0           0       -3.481008    0.215943    1.453816
    173          0           0       -3.465641    0.117746    1.066361
    174          0           0       -3.484850    0.240493    1.550679
    175          0           0       -3.461799    0.093197    0.969497
    176          0           0       -3.488692    0.265042    1.647543
    177          0           0       -3.457957    0.068647    0.872634
    178          0           0       -3.492534    0.289591    1.744407
    179          0           0       -3.454115    0.044098    0.775770
    180          0           0       -3.473324    0.166845    1.260088
    181          0           0       -3.472302    0.676093    1.234302
    182          0           0       -3.464618    0.626995    1.040574
    183          0           0       -3.476144    0.700643    1.331165
    184          0           0       -3.460776    0.602445    0.943711
    185          0           0       -3.479986    0.725192    1.428029
    186          0           0       -3.456934    0.577896    0.846847
    187          0           0       -3.483828    0.749741    1.524893
    188          0           0       -3.453092    0.553347    0.749983
    189          0           0       -3.487670    0.774290    1.621756
    190          0           0       -3.449250    0.528797    0.653120
    191          0           0       -3.468460    0.651544    1.137438
    192          0           0       -3.467437    1.160792    1.111652
    193          0           0       -3.459753    1.111694    0.917924
    194          0           0       -3.471279    1.185342    1.208515
    195          0           0       -3.455911    1.087144    0.821061
    196          0           0       -3.475121    1.209891    1.305379
    197          0           0       -3.452069    1.062595    0.724197
    198          0           0       -3.478963    1.234440    1.402243
    199          0           0       -3.448227    1.038046    0.627333
    200          0           0       -3.482805    1.258990    1.499106
    201          0           0       -3.444385    1.013496    0.530470
    202          0           0       -3.463595    1.136243    1.014788
    203          0           0       -3.462572    1.645492    0.989001
    204          0           0       -3.454888    1.596393    0.795274
    205          0           0       -3.466414    1.670041    1.085865
    206          0           0       -3.451046    1.571844    0.698410
    207          0           0       -3.470256    1.694590    1.182729
    208          0           0       -3.447204    1.547294    0.601547
    209          0           0       -3.474098    1.719139    1.279592
    210          0           0       -3.443362    1.522745    0.504683
    211          0           0       -3.477940    1.743689    1.376456
    212          0           0       -3.439520    1.498196    0.407819
    213          0           0       -3.458730    1.620942    0.892138
    214          0           0       -3.457707    2.130191    0.866351
    215          0           0       -3.450023    2.081092    0.672624
    216          0           0       -3.461549    2.154740    0.963215
    217          0           0       -3.446181    2.056543    0.575760
    218          0           0       -3.465391    2.179289    1.060079
    219          0           0       -3.442339    2.031993    0.478897
    220          0           0       -3.469233    2.203839    1.156942
    221          0           0       -3.438497    2.007444    0.382033
    222          0           0       -3.473075    2.228388    1.253806
    223          0           0       -3.434655    1.982895    0.285169
    224          0           0       -3.453865    2.105641    0.769488
    225          0           0       -3.452843    2.614890    0.743701
    226          0           0       -3.445159    2.565791    0.549974
    227          0           0       -3.456685    2.639439    0.840565
    228          0           0       -3.441317    2.541242    0.453110
    229          0           0       -3.460527    2.663988    0.937428
    230          0           0       -3.437475    2.516693    0.356246
    231          0           0       -3.464369    2.688538    1.034292
    232          0           0       -3.433633    2.492143    0.259383
    233          0           0       -3.468211    2.713087    1.131156
    234          0           0       -3.429791    2.467594    0.162519
    235          0           0       -3.449001    2.590341    0.646837
    236          0           0       -3.447978    3.099589    0.621051
 ---------------------------------------------------------------------
 Rotational constants (GHZ):      0.4529074      0.2836956      0.1879557
 Standard basis: 6-311+G(d,p) (5D, 7F)
 Warning:  center  37 has no basis functions!
 Warning:  center  38 has no basis functions!
 Warning:  center  39 has no basis functions!
 Warning:  center  40 has no basis functions!
 Warning:  center  41 has no basis functions!
 Warning:  center  42 has no basis functions!
 Warning:  center  43 has no basis functions!
 Warning:  center  44 has no basis functions!
 Warning:  center  45 has no basis functions!
 Warning:  center  46 has no basis functions!
 Warning:  center  47 has no basis functions!
 Warning:  center  48 has no basis functions!
 Warning:  center  49 has no basis functions!
 Warning:  center  50 has no basis functions!
 Warning:  center  51 has no basis functions!
 Warning:  center  52 has no basis functions!
 Warning:  center  53 has no basis functions!
 Warning:  center  54 has no basis functions!
 Warning:  center  55 has no basis functions!
 Warning:  center  56 has no basis functions!
 Warning:  center  57 has no basis functions!
 Warning:  center  58 has no basis functions!
 Warning:  center  59 has no basis functions!
 Warning:  center  60 has no basis functions!
 Warning:  center  61 has no basis functions!
 Warning:  center  62 has no basis functions!
 Warning:  center  63 has no basis functions!
 Warning:  center  64 has no basis functions!
 Warning:  center  65 has no basis functions!
 Warning:  center  66 has no basis functions!
 Warning:  center  67 has no basis functions!
 Warning:  center  68 has no basis functions!
 Warning:  center  69 has no basis functions!
 Warning:  center  70 has no basis functions!
 Warning:  center  71 has no basis functions!
 Warning:  center  72 has no basis functions!
 Warning:  center  73 has no basis functions!
 Warning:  center  74 has no basis functions!
 Warning:  center  75 has no basis functions!
 Warning:  center  76 has no basis functions!
 Warning:  center  77 has no basis functions!
 Warning:  center  78 has no basis functions!
 Warning:  center  79 has no basis functions!
 Warning:  center  80 has no basis functions!
 Warning:  center  81 has no basis functions!
 Warning:  center  82 has no basis functions!
 Warning:  center  83 has no basis functions!
 Warning:  center  84 has no basis functions!
 Warning:  center  85 has no basis functions!
 Warning:  center  86 has no basis functions!
 Warning:  center  87 has no basis functions!
 Warning:  center  88 has no basis functions!
 Warning:  center  89 has no basis functions!
 Warning:  center  90 has no basis functions!
 Warning:  center  91 has no basis functions!
 Warning:  center  92 has no basis functions!
 Warning:  center  93 has no basis functions!
 Warning:  center  94 has no basis functions!
 Warning:  center  95 has no basis functions!
 Warning:  center  96 has no basis functions!
 Warning:  center  97 has no basis functions!
 Warning:  center  98 has no basis functions!
 Warning:  center  99 has no basis functions!
 Warning:  center 100 has no basis functions!
 Warning:  center 101 has no basis functions!
 Warning:  center 102 has no basis functions!
 Warning:  center 103 has no basis functions!
 Warning:  center 104 has no basis functions!
 Warning:  center 105 has no basis functions!
 Warning:  center 106 has no basis functions!
 Warning:  center 107 has no basis functions!
 Warning:  center 108 has no basis functions!
 Warning:  center 109 has no basis functions!
 Warning:  center 110 has no basis functions!
 Warning:  center 111 has no basis functions!
 Warning:  center 112 has no basis functions!
 Warning:  center 113 has no basis functions!
 Warning:  center 114 has no basis functions!
 Warning:  center 115 has no basis functions!
 Warning:  center 116 has no basis functions!
 Warning:  center 117 has no basis functions!
 Warning:  center 118 has no basis functions!
 Warning:  center 119 has no basis functions!
 Warning:  center 120 has no basis functions!
 Warning:  center 121 has no basis functions!
 Warning:  center 122 has no basis functions!
 Warning:  center 123 has no basis functions!
 Warning:  center 124 has no basis functions!
 Warning:  center 125 has no basis functions!
 Warning:  center 126 has no basis functions!
 Warning:  center 127 has no basis functions!
 Warning:  center 128 has no basis functions!
 Warning:  center 129 has no basis functions!
 Warning:  center 130 has no basis functions!
 Warning:  center 131 has no basis functions!
 Warning:  center 132 has no basis functions!
 Warning:  center 133 has no basis functions!
 Warning:  center 134 has no basis functions!
 Warning:  center 135 has no basis functions!
 Warning:  center 136 has no basis functions!
 Warning:  center 137 has no basis functions!
 Warning:  center 138 has no basis functions!
 Warning:  center 139 has no basis functions!
 Warning:  center 140 has no basis functions!
 Warning:  center 141 has no basis functions!
 Warning:  center 142 has no basis functions!
 Warning:  center 143 has no basis functions!
 Warning:  center 144 has no basis functions!
 Warning:  center 145 has no basis functions!
 Warning:  center 146 has no basis functions!
 Warning:  center 147 has no basis functions!
 Warning:  center 148 has no basis functions!
 Warning:  center 149 has no basis functions!
 Warning:  center 150 has no basis functions!
 Warning:  center 151 has no basis functions!
 Warning:  center 152 has no basis functions!
 Warning:  center 153 has no basis functions!
 Warning:  center 154 has no basis functions!
 Warning:  center 155 has no basis functions!
 Warning:  center 156 has no basis functions!
 Warning:  center 157 has no basis functions!
 Warning:  center 158 has no basis functions!
 Warning:  center 159 has no basis functions!
 Warning:  center 160 has no basis functions!
 Warning:  center 161 has no basis functions!
 Warning:  center 162 has no basis functions!
 Warning:  center 163 has no basis functions!
 Warning:  center 164 has no basis functions!
 Warning:  center 165 has no basis functions!
 Warning:  center 166 has no basis functions!
 Warning:  center 167 has no basis functions!
 Warning:  center 168 has no basis functions!
 Warning:  center 169 has no basis functions!
 Warning:  center 170 has no basis functions!
 Warning:  center 171 has no basis functions!
 Warning:  center 172 has no basis functions!
 Warning:  center 173 has no basis functions!
 Warning:  center 174 has no basis functions!
 Warning:  center 175 has no basis functions!
 Warning:  center 176 has no basis functions!
 Warning:  center 177 has no basis functions!
 Warning:  center 178 has no basis functions!
 Warning:  center 179 has no basis functions!
 Warning:  center 180 has no basis functions!
 Warning:  center 181 has no basis functions!
 Warning:  center 182 has no basis functions!
 Warning:  center 183 has no basis functions!
 Warning:  center 184 has no basis functions!
 Warning:  center 185 has no basis functions!
 Warning:  center 186 has no basis functions!
 Warning:  center 187 has no basis functions!
 Warning:  center 188 has no basis functions!
 Warning:  center 189 has no basis functions!
 Warning:  center 190 has no basis functions!
 Warning:  center 191 has no basis functions!
 Warning:  center 192 has no basis functions!
 Warning:  center 193 has no basis functions!
 Warning:  center 194 has no basis functions!
 Warning:  center 195 has no basis functions!
 Warning:  center 196 has no basis functions!
 Warning:  center 197 has no basis functions!
 Warning:  center 198 has no basis functions!
 Warning:  center 199 has no basis functions!
 Warning:  center 200 has no basis functions!
 Warning:  center 201 has no basis functions!
 Warning:  center 202 has no basis functions!
 Warning:  center 203 has no basis functions!
 Warning:  center 204 has no basis functions!
 Warning:  center 205 has no basis functions!
 Warning:  center 206 has no basis functions!
 Warning:  center 207 has no basis functions!
 Warning:  center 208 has no basis functions!
 Warning:  center 209 has no basis functions!
 Warning:  center 210 has no basis functions!
 Warning:  center 211 has no basis functions!
 Warning:  center 212 has no basis functions!
 Warning:  center 213 has no basis functions!
 Warning:  center 214 has no basis functions!
 Warning:  center 215 has no basis functions!
 Warning:  center 216 has no basis functions!
 Warning:  center 217 has no basis functions!
 Warning:  center 218 has no basis functions!
 Warning:  center 219 has no basis functions!
 Warning:  center 220 has no basis functions!
 Warning:  center 221 has no basis functions!
 Warning:  center 222 has no basis functions!
 Warning:  center 223 has no basis functions!
 Warning:  center 224 has no basis functions!
 Warning:  center 225 has no basis functions!
 Warning:  center 226 has no basis functions!
 Warning:  center 227 has no basis functions!
 Warning:  center 228 has no basis functions!
 Warning:  center 229 has no basis functions!
 Warning:  center 230 has no basis functions!
 Warning:  center 231 has no basis functions!
 Warning:  center 232 has no basis functions!
 Warning:  center 233 has no basis functions!
 Warning:  center 234 has no basis functions!
 Warning:  center 235 has no basis functions!
 Warning:  center 236 has no basis functions!
   568 basis functions,   904 primitive gaussians,   590 cartesian basis functions
    73 alpha electrons       73 beta electrons
       nuclear repulsion energy      1610.9176155625 Hartrees.
 NAtoms=  236 NActive=  236 NUniq=  236 SFac= 1.00D+00 NAtFMM=   60 NAOKFM=T Big=T
 Integral buffers will be    131072 words long.
 Raffenetti 2 integral format.
 Two-electron integral symmetry is turned off.
 One-electron integrals computed using PRISM.
 NBasis=   568 RedAO= T EigKep=  1.78D-06  NBF=   568
 NBsUse=   556 1.00D-06 EigRej=  9.09D-07 NBFU=   556
 ExpMin= 4.38D-02 ExpMax= 4.56D+03 ExpMxC= 6.82D+02 IAcc=2 IRadAn=         4 AccDes= 0.00D+00
 Harris functional with IExCor=  402 and IRadAn=       4 diagonalized for initial guess.
 HarFok:  IExCor=  402 AccDes= 0.00D+00 IRadAn=         4 IDoV= 1 UseB2=F ITyADJ=14
 ICtDFT=  3500011 ScaDFX=  1.000000  1.000000  1.000000  1.000000
 FoFCou: FMM=F IPFlag=           0 FMFlag=      100000 FMFlg1=        2001
         NFxFlg=           0 DoJE=T BraDBF=F KetDBF=T FulRan=T
         wScrn=  0.000000 ICntrl=     500 IOpCl=  0 I1Cent=   200000004 NGrid=           0
         NMat0=    1 NMatS0=      1 NMatT0=    0 NMatD0=    1 NMtDS0=    0 NMtDT0=    0
 Symmetry not used in FoFCou.
 Requested convergence on RMS density matrix=1.00D-08 within 128 cycles.
 Requested convergence on MAX density matrix=1.00D-06.
 Requested convergence on             energy=1.00D-06.
 No special actions if energy rises.
 SCF Done:  E(RB3LYP) =  -847.003289848     A.U. after   15 cycles
            NFock= 15  Conv=0.75D-08     -V/T= 2.0040
 DoSCS=F DFT=T ScalE2(SS,OS)=  1.000000  1.000000
 Range of M.O.s used for correlation:     1   556
 NBasis=   568 NAE=    73 NBE=    73 NFC=     0 NFV=     0
 NROrb=    556 NOA=    73 NOB=    73 NVA=   483 NVB=   483

 **** Warning!!: The largest alpha MO coefficient is  0.10971036D+03

          Differentiating once with respect to magnetic field using GIAOs.
          Electric field/nuclear overlap derivatives assumed to be zero.
 FoFCou: FMM=F IPFlag=           0 FMFlag=      100000 FMFlg1=        2001
         NFxFlg=           0 DoJE=F BraDBF=F KetDBF=T FulRan=T
         wScrn=  0.000000 ICntrl=    6100 IOpCl=  0 I1Cent=           7 NGrid=         236
         NMat0=    1 NMatS0=      1 NMatT0=    0 NMatD0=    1 NMtDS0=    0 NMtDT0=    0
 Symmetry not used in FoFCou.
 FoFJK:  IHMeth= 1 ICntrl=    6127 DoSepK=F KAlg= 0 I1Cent=   0 FoldK=F
 IRaf=         1 NMat=   1 IRICut=       1 DoRegI=T DoRafI=F ISym2E= 0.
          There are     3 degrees of freedom in the 1st order CPHF.  IDoFFX=0 NUNeed=     3.
      3 vectors produced by pass  0 Test12= 1.18D-12 3.33D-08 XBig12= 2.07D+03 9.18D+00.
 AX will form     3 AO Fock derivatives at one time.
      3 vectors produced by pass  1 Test12= 1.18D-12 3.33D-08 XBig12= 3.56D+00 8.03D-01.
      3 vectors produced by pass  2 Test12= 1.18D-12 3.33D-08 XBig12= 2.10D-02 6.92D-02.
      3 vectors produced by pass  3 Test12= 1.18D-12 3.33D-08 XBig12= 5.45D-05 1.89D-03.
      3 vectors produced by pass  4 Test12= 1.18D-12 3.33D-08 XBig12= 1.20D-07 7.79D-05.
      3 vectors produced by pass  5 Test12= 1.18D-12 3.33D-08 XBig12= 4.02D-10 4.73D-06.
      3 vectors produced by pass  6 Test12= 1.18D-12 3.33D-08 XBig12= 1.32D-12 2.61D-07.
 InvSVY:  IOpt=1 It=  1 EMax= 7.11D-15
 Solved reduced A of dimension    21 with     3 vectors.
 Calculating GIAO nuclear magnetic shielding tensors.
 SCF GIAO Magnetic shielding tensor (ppm):
      1  C    Isotropic =    53.8139   Anisotropy =   178.0260
   XX=   -41.4327   YX=   -32.3458   ZX=    10.0287
   XY=   -28.3572   YY=    59.0527   ZY=    55.1899
   XZ=    13.1759   YZ=    58.7550   ZZ=   143.8218
   Eigenvalues:   -53.8775    42.8214   172.4979
      2  H    Isotropic =    24.3095   Anisotropy =     4.8536
   XX=    25.5771   YX=    -1.0289   ZX=     0.5661
   XY=    -0.7431   YY=    26.1829   ZY=    -2.3306
   XZ=    -0.1707   YZ=    -2.4411   ZZ=    21.1687
   Eigenvalues:    20.2108    25.1725    27.5453
      3  C    Isotropic =    51.4055   Anisotropy =   157.8639
   XX=   -31.5399   YX=    38.5015   ZX=   -17.9316
   XY=    34.3519   YY=    49.9437   ZY=    49.6392
   XZ=    -9.8383   YZ=    44.6006   ZZ=   135.8127
   Eigenvalues:   -50.5747    48.1432   156.6481
      4  H    Isotropic =    23.8290   Anisotropy =     7.1838
   XX=    25.3635   YX=     1.8486   ZX=    -0.3559
   XY=     1.9656   YY=    26.4581   ZY=    -2.4103
   XZ=    -1.2941   YZ=    -2.6614   ZZ=    19.6654
   Eigenvalues:    18.8176    24.0511    28.6182
      5  C    Isotropic =    46.0697   Anisotropy =   207.6751
   XX=   -19.2123   YX=    -4.8852   ZX=    -1.6475
   XY=     2.8938   YY=    -2.9860   ZY=    66.5656
   XZ=     2.5356   YZ=    67.9144   ZZ=   160.4073
   Eigenvalues:   -27.2455   -19.0652   184.5197
      6  C    Isotropic =    47.5218   Anisotropy =   196.9389
   XX=   -28.1552   YX=    -2.7889   ZX=    12.0660
   XY=   -14.3886   YY=    21.2063   ZY=    74.2521
   XZ=   -18.6356   YZ=    61.1113   ZZ=   149.5144
   Eigenvalues:   -30.2925    -5.9564   178.8144
      7  C    Isotropic =    49.3915   Anisotropy =   179.8333
   XX=   -12.5211   YX=    28.7048   ZX=   -24.6745
   XY=    31.5123   YY=    29.7000   ZY=    77.7459
   XZ=   -40.0095   YZ=    65.3072   ZZ=   130.9956
   Eigenvalues:   -52.1299    31.0240   169.2804
      8  H    Isotropic =    23.1586   Anisotropy =    13.5525
   XX=    28.5711   YX=     1.5482   ZX=    -3.6986
   XY=     3.2466   YY=    22.7592   ZY=    -2.1157
   XZ=    -8.3753   YZ=    -1.0821   ZZ=    18.1456
   Eigenvalues:    15.3521    21.9301    32.1936
      9  C    Isotropic =    55.1460   Anisotropy =   174.7426
   XX=    46.7071   YX=    -2.6162   ZX=    -2.8420
   XY=     0.6223   YY=    -1.6258   ZY=    92.8272
   XZ=     0.5159   YZ=    95.6598   ZZ=   120.3568
   Eigenvalues:   -52.8932    46.6901   171.6411
     10  H    Isotropic =    24.6278   Anisotropy =     7.1815
   XX=    29.1040   YX=     0.1399   ZX=    -0.3694
   XY=     0.3642   YY=    23.4778   ZY=    -1.0805
   XZ=    -2.4493   YZ=    -2.9465   ZZ=    21.3016
   Eigenvalues:    19.9703    24.4977    29.4155
     11  C    Isotropic =    51.5607   Anisotropy =   151.2142
   XX=     2.1639   YX=    40.9287   ZX=   -26.0048
   XY=    49.9131   YY=    12.2331   ZY=    42.1342
   XZ=   -15.6145   YZ=    38.6614   ZZ=   140.2851
   Eigenvalues:   -48.1951    50.5071   152.3701
     12  H    Isotropic =    23.8537   Anisotropy =     7.3815
   XX=    25.9672   YX=     2.3738   ZX=    -0.2390
   XY=     2.4320   YY=    26.3975   ZY=    -1.8291
   XZ=     0.3529   YZ=    -1.7731   ZZ=    19.1964
   Eigenvalues:    18.7149    24.0714    28.7747
     13  C    Isotropic =    52.8653   Anisotropy =   147.4265
   XX=    51.2944   YX=    19.9221   ZX=   -13.4678
   XY=    11.5478   YY=   -34.0176   ZY=    42.5079
   XZ=    -9.2241   YZ=    40.0716   ZZ=   141.3192
   Eigenvalues:   -46.5152    53.9616   151.1497
     14  H    Isotropic =    24.0156   Anisotropy =     7.3485
   XX=    28.6644   YX=     0.6281   ZX=     1.0808
   XY=     0.5926   YY=    24.4325   ZY=    -1.0823
   XZ=     1.6846   YZ=    -0.3842   ZZ=    18.9500
   Eigenvalues:    18.6430    24.4892    28.9146
     15  C    Isotropic =    46.2221   Anisotropy =   203.9048
   XX=   -27.2215   YX=    -0.0442   ZX=   -28.9124
   XY=     4.6427   YY=   -10.5571   ZY=    28.3830
   XZ=   -10.2704   YZ=    26.7376   ZZ=   176.4448
   Eigenvalues:   -30.5512   -12.9411   182.1586
     16  C    Isotropic =    51.9375   Anisotropy =   188.2004
   XX=   -19.4441   YX=     5.5046   ZX=    15.7858
   XY=    -8.3874   YY=     2.4863   ZY=    22.9264
   XZ=   -50.6243   YZ=    23.3340   ZZ=   172.7704
   Eigenvalues:   -21.0294    -0.5625   177.4045
     17  C    Isotropic =    51.9482   Anisotropy =   149.1264
   XX=    50.7296   YX=   -23.9353   ZX=   -18.4207
   XY=   -16.7271   YY=   -41.8764   ZY=    17.8662
   XZ=   -14.3278   YZ=    11.4871   ZZ=   146.9915
   Eigenvalues:   -46.7796    51.2584   151.3658
     18  H    Isotropic =    24.0122   Anisotropy =     7.5163
   XX=    28.5811   YX=    -0.0866   ZX=     1.5071
   XY=    -0.2466   YY=    24.3342   ZY=    -0.7657
   XZ=     2.5088   YZ=    -1.5208   ZZ=    19.1214
   Eigenvalues:    18.5094    24.5041    29.0231
     19  C    Isotropic =    51.7356   Anisotropy =   148.5924
   XX=     2.4559   YX=   -45.6913   ZX=   -31.2531
   XY=   -53.4448   YY=     7.4698   ZY=    -1.8888
   XZ=   -23.5601   YZ=    -1.2765   ZZ=   145.2810
   Eigenvalues:   -46.9894    51.3989   150.7972
     20  H    Isotropic =    23.9071   Anisotropy =     7.6651
   XX=    25.5796   YX=    -2.0226   ZX=     1.4905
   XY=    -1.9998   YY=    27.3706   ZY=    -0.5164
   XZ=     2.7276   YZ=    -1.1179   ZZ=    18.7711
   Eigenvalues:    18.1643    24.5398    29.0172
     21  C    Isotropic =    45.9767   Anisotropy =   203.9316
   XX=   -16.2108   YX=    13.1802   ZX=   -44.5913
   XY=     6.5714   YY=   -20.6329   ZY=     0.0949
   XZ=   -28.8984   YZ=   -13.0883   ZZ=   174.7736
   Eigenvalues:   -30.5796   -13.4215   181.9311
     22  C    Isotropic =    52.0450   Anisotropy =   188.1157
   XX=    -0.0787   YX=     2.5023   ZX=   -16.3451
   XY=    18.9327   YY=   -14.4798   ZY=   -34.4335
   XZ=   -50.6032   YZ=    19.9104   ZZ=   170.6934
   Eigenvalues:   -20.7705    -0.5500   177.4554
     23  C    Isotropic =    53.2392   Anisotropy =   146.7412
   XX=   -22.0674   YX=   -32.0012   ZX=   -49.4857
   XY=   -23.2043   YY=    44.3661   ZY=   -15.6400
   XZ=   -43.8090   YZ=   -20.2525   ZZ=   137.4189
   Eigenvalues:   -45.6776    54.3286   151.0667
     24  H    Isotropic =    23.8249   Anisotropy =     7.5289
   XX=    25.1073   YX=    -1.7330   ZX=     1.5380
   XY=    -1.5944   YY=    28.0047   ZY=     0.0879
   XZ=     1.2557   YZ=    -0.8283   ZZ=    18.3628
   Eigenvalues:    18.0848    24.5458    28.8442
     25  C    Isotropic =    51.4969   Anisotropy =   150.1066
   XX=   -28.4915   YX=    33.9684   ZX=   -52.3137
   XY=    22.0311   YY=    46.6072   ZY=    -3.8075
   XZ=   -44.5594   YZ=   -10.6355   ZZ=   136.3748
   Eigenvalues:   -48.3857    51.3083   151.5679
     26  H    Isotropic =    23.7431   Anisotropy =     7.4052
   XX=    24.0663   YX=     1.1141   ZX=     1.9989
   XY=     0.9693   YY=    28.1000   ZY=     1.6568
   XZ=     2.0795   YZ=     0.8886   ZZ=    19.0630
   Eigenvalues:    18.2615    24.2880    28.6799
     27  C    Isotropic =    45.8108   Anisotropy =   207.2710
   XX=    -2.7702   YX=    13.7697   ZX=   -61.4651
   XY=     6.5593   YY=   -12.0335   ZY=   -41.6456
   XZ=   -62.6381   YZ=   -44.9232   ZZ=   152.2361
   Eigenvalues:   -28.0803   -18.4787   183.9915
     28  C    Isotropic =    47.8398   Anisotropy =   197.2870
   XX=    19.6900   YX=    14.4398   ZX=   -60.5682
   XY=    28.5650   YY=   -19.3566   ZY=   -56.7015
   XZ=   -63.1331   YZ=   -24.4782   ZZ=   143.1859
   Eigenvalues:   -30.5979    -5.2472   179.3644
     29  C    Isotropic =    49.3441   Anisotropy =   179.7793
   XX=    -3.4110   YX=    38.3775   ZX=   -80.8875
   XY=    36.1252   YY=    25.9805   ZY=   -23.7573
   XZ=   -78.1065   YZ=    -3.9802   ZZ=   125.4627
   Eigenvalues:   -51.6645    30.4997   169.1970
     30  H    Isotropic =    23.1387   Anisotropy =    13.3222
   XX=    22.4354   YX=    -0.7013   ZX=    -0.2375
   XY=    -2.1539   YY=    28.3546   ZY=     4.5555
   XZ=    -3.4181   YZ=     8.3231   ZZ=    18.6259
   Eigenvalues:    15.2751    22.1208    32.0201
     31  C    Isotropic =    55.4410   Anisotropy =   174.9390
   XX=    17.1871   YX=   -14.0890   ZX=   -84.0024
   XY=   -17.9030   YY=    37.4745   ZY=   -50.3662
   XZ=   -84.6557   YZ=   -54.8325   ZZ=   111.6615
   Eigenvalues:   -51.9248    46.1808   172.0670
     32  H    Isotropic =    24.5337   Anisotropy =     7.2554
   XX=    24.6185   YX=    -2.5264   ZX=     0.7632
   XY=    -2.7385   YY=    27.4630   ZY=     1.0335
   XZ=     1.1913   YZ=     3.7573   ZZ=    21.5194
   Eigenvalues:    19.8987    24.3316    29.3706
     33  C    Isotropic =    53.1814   Anisotropy =   179.0596
   XX=    60.9231   YX=    35.2256   ZX=   -42.9515
   XY=    32.0226   YY=   -38.1801   ZY=   -45.5652
   XZ=   -44.2248   YZ=   -50.7831   ZZ=   136.8014
   Eigenvalues:   -55.1197    42.1095   172.5545
     34  H    Isotropic =    24.2825   Anisotropy =     5.1861
   XX=    26.7643   YX=    -0.0934   ZX=     2.5955
   XY=    -0.2993   YY=    24.8157   ZY=     0.8589
   XZ=     2.3715   YZ=     1.4580   ZZ=    21.2676
   Eigenvalues:    20.0339    25.0737    27.7399
     35  C    Isotropic =    51.5295   Anisotropy =   155.1748
   XX=    -0.5131   YX=    52.5760   ZX=   -52.1551
   XY=    55.6135   YY=    25.1843   ZY=   -14.2643
   XZ=   -45.7255   YZ=   -17.1625   ZZ=   129.9171
   Eigenvalues:   -48.3147    47.9237   154.9793
     36  H    Isotropic =    23.8384   Anisotropy =     7.3073
   XX=    24.2302   YX=     1.4459   ZX=     2.1759
   XY=     1.2147   YY=    27.1572   ZY=     2.0665
   XZ=     1.6853   YZ=     2.7775   ZZ=    20.1277
   Eigenvalues:    18.9464    23.8588    28.7099
     37  Bq   Isotropic =     5.8932   Anisotropy =     3.9106
   XX=     6.7999   YX=    -1.1381   ZX=     0.2965
   XY=    -0.5401   YY=     7.4436   ZY=    -0.2175
   XZ=    -1.7144   YZ=     3.0191   ZZ=     3.4363
   Eigenvalues:     2.9458     6.2336     8.5003
     38  Bq   Isotropic =    24.7599   Anisotropy =    25.5608
   XX=    19.7384   YX=    -3.9564   ZX=    -5.4355
   XY=    -6.8904   YY=    18.4739   ZY=     5.4109
   XZ=   -14.3382   YZ=     0.4326   ZZ=    36.0673
   Eigenvalues:    12.4704    20.0088    41.8004
     39  Bq   Isotropic =    26.1803   Anisotropy =    27.7967
   XX=    17.8091   YX=    -8.0211   ZX=    -9.0302
   XY=    -7.5713   YY=    21.4307   ZY=     3.7934
   XZ=    -9.9734   YZ=     3.8424   ZZ=    39.3012
   Eigenvalues:    10.5519    23.2776    44.7114
     40  Bq   Isotropic =    21.5735   Anisotropy =    26.0412
   XX=    16.7029   YX=    -3.0131   ZX=    -4.3603
   XY=    -6.8699   YY=    14.6331   ZY=     6.2015
   XZ=   -15.3741   YZ=    -0.1656   ZZ=    33.3844
   Eigenvalues:     9.6473    16.1388    38.9342
     41  Bq   Isotropic =    19.8641   Anisotropy =    36.1718
   XX=     5.5453   YX=   -11.7569   ZX=   -11.4895
   XY=    -8.8434   YY=    15.3787   ZY=     4.6487
   XZ=    -6.7219   YZ=     8.5234   ZZ=    38.6681
   Eigenvalues:    -1.4462    17.0598    43.9786
     42  Bq   Isotropic =    18.2645   Anisotropy =    26.3399
   XX=    13.3439   YX=    -2.4477   ZX=    -3.6188
   XY=    -6.8227   YY=    10.8978   ZY=     6.7047
   XZ=   -15.7888   YZ=    -0.5115   ZZ=    30.5518
   Eigenvalues:     6.5344    12.4347    35.8244
     43  Bq   Isotropic =     4.3373   Anisotropy =    57.5684
   XX=   -22.1597   YX=   -16.5155   ZX=   -13.2873
   XY=   -10.7204   YY=    -0.4602   ZY=     9.7768
   XZ=    -2.6855   YZ=    18.2384   ZZ=    35.6319
   Eigenvalues:   -28.7434    -0.9609    42.7163
     44  Bq   Isotropic =    15.2550   Anisotropy =    26.2534
   XX=    10.2881   YX=    -2.1012   ZX=    -3.1080
   XY=    -6.6933   YY=     7.6837   ZY=     6.9381
   XZ=   -15.7427   YZ=    -0.7353   ZZ=    27.7932
   Eigenvalues:     3.7387     9.2690    32.7572
     45  Bq   Isotropic =   -21.0715   Anisotropy =    96.7540
   XX=   -67.8747   YX=   -19.9295   ZX=   -11.6433
   XY=   -10.9581   YY=   -24.9393   ZY=    22.9548
   XZ=     2.3882   YZ=    35.8708   ZZ=    29.5995
   Eigenvalues:   -73.0996   -33.5461    43.4312
     46  Bq   Isotropic =    12.6854   Anisotropy =    25.7764
   XX=     7.7411   YX=    -1.8770   ZX=    -2.7525
   XY=    -6.4717   YY=     5.0949   ZY=     6.9591
   XZ=   -15.3714   YZ=    -0.8889   ZZ=    25.2203
   Eigenvalues:     1.4715     6.7151    29.8697
     47  Bq   Isotropic =   -45.7856   Anisotropy =   137.7131
   XX=  -114.7700   YX=   -16.5216   ZX=    -5.2692
   XY=    -4.1737   YY=   -43.0419   ZY=    40.3110
   XZ=     5.2461   YZ=    54.7702   ZZ=    20.4552
   Eigenvalues:  -116.6432   -66.7366    46.0231
     48  Bq   Isotropic =    26.8785   Anisotropy =    25.5700
   XX=    21.0164   YX=    -5.5197   ZX=    -6.9635
   XY=    -7.0309   YY=    21.3996   ZY=     4.4544
   XZ=   -12.5436   YZ=     1.5711   ZZ=    38.2195
   Eigenvalues:    13.6492    23.0612    43.9252
     49  Bq   Isotropic =    23.7629   Anisotropy =    29.3740
   XX=    18.4026   YX=    -3.8653   ZX=    -3.3647
   XY=    -6.3492   YY=    16.2985   ZY=     7.2952
   XZ=   -13.9395   YZ=     8.9285   ZZ=    36.5875
   Eigenvalues:    12.0756    15.8675    43.3456
     50  Bq   Isotropic =    31.8721   Anisotropy =    28.5400
   XX=    29.0002   YX=    -5.8605   ZX=    -4.1301
   XY=    -4.6979   YY=    21.1582   ZY=     7.0132
   XZ=    -7.8925   YZ=    10.8648   ZZ=    45.4579
   Eigenvalues:    17.2396    27.4779    50.8988
     51  Bq   Isotropic =    20.0771   Anisotropy =    29.4973
   XX=    13.8775   YX=    -3.1773   ZX=    -2.9745
   XY=    -6.7034   YY=    13.6257   ZY=     7.6056
   XZ=   -15.5267   YZ=     8.1760   ZZ=    32.7281
   Eigenvalues:     8.7389    11.7505    39.7420
     52  Bq   Isotropic =    35.6223   Anisotropy =    28.7103
   XX=    34.0357   YX=    -7.0759   ZX=    -4.3103
   XY=    -3.4628   YY=    22.7737   ZY=     7.6273
   XZ=    -3.6722   YZ=    12.3113   ZZ=    50.0575
   Eigenvalues:    18.5481    33.5563    54.7625
     53  Bq   Isotropic =    16.8654   Anisotropy =    29.2203
   XX=    10.1612   YX=    -2.6694   ZX=    -2.6362
   XY=    -6.7983   YY=    11.1043   ZY=     7.8216
   XZ=   -16.3075   YZ=     7.4628   ZZ=    29.3307
   Eigenvalues:     5.4880     8.7626    36.3456
     54  Bq   Isotropic =    38.6118   Anisotropy =    30.2243
   XX=    37.9565   YX=    -8.2053   ZX=    -4.1444
   XY=    -2.1820   YY=    23.6343   ZY=     9.2135
   XZ=     0.6217   YZ=    14.2181   ZZ=    54.2447
   Eigenvalues:    18.6676    38.4065    58.7614
     55  Bq   Isotropic =    14.1603   Anisotropy =    28.5584
   XX=     7.2489   YX=    -2.3016   ZX=    -2.3594
   XY=    -6.6964   YY=     8.8582   ZY=     7.8957
   XZ=   -16.4703   YZ=     6.7662   ZZ=    26.3736
   Eigenvalues:     2.8285     6.4531    33.1992
     56  Bq   Isotropic =    40.5805   Anisotropy =    33.3620
   XX=    40.2980   YX=    -8.9259   ZX=    -3.4637
   XY=    -1.1919   YY=    23.9212   ZY=    11.9066
   XZ=     3.9847   YZ=    16.4960   ZZ=    57.5223
   Eigenvalues:    17.6849    41.2348    62.8218
     57  Bq   Isotropic =    11.9310   Anisotropy =    27.5860
   XX=     5.0463   YX=    -2.0353   ZX=    -2.1420
   XY=    -6.4562   YY=     6.9360   ZY=     7.8279
   XZ=   -16.1952   YZ=     6.0875   ZZ=    23.8107
   Eigenvalues:     0.8449     4.6264    30.3216
     58  Bq   Isotropic =    41.6111   Anisotropy =    37.1909
   XX=    41.2344   YX=    -8.8887   ZX=    -2.1959
   XY=    -0.8695   YY=    24.0856   ZY=    15.3586
   XZ=     5.3602   YZ=    18.7821   ZZ=    59.5133
   Eigenvalues:    16.1550    42.2732    66.4050
     59  Bq   Isotropic =    27.7858   Anisotropy =    28.9541
   XX=    23.5761   YX=    -4.7622   ZX=    -3.7737
   XY=    -5.6845   YY=    18.9063   ZY=     7.0179
   XZ=   -11.3993   YZ=     9.7858   ZZ=    40.8752
   Eigenvalues:    14.9828    21.2862    47.0886
     60  Bq   Isotropic =    19.3570   Anisotropy =    27.6990
   XX=    14.0781   YX=    -1.8621   ZX=    -2.4167
   XY=    -5.6334   YY=    18.2462   ZY=    10.0495
   XZ=   -16.9842   YZ=    11.7107   ZZ=    25.7466
   Eigenvalues:     7.7283    12.5196    37.8230
     61  Bq   Isotropic =    26.3764   Anisotropy =    26.6587
   XX=    22.8236   YX=    -1.7749   ZX=    -3.1096
   XY=    -4.3670   YY=    26.3801   ZY=    12.8033
   XZ=   -14.0422   YZ=    12.0535   ZZ=    29.9255
   Eigenvalues:    13.8632    21.1171    44.1489
     62  Bq   Isotropic =    16.2694   Anisotropy =    27.7777
   XX=    10.3711   YX=    -1.7825   ZX=    -2.2038
   XY=    -5.8368   YY=    14.8619   ZY=     9.2412
   XZ=   -17.4878   YZ=    11.3514   ZZ=    23.5751
   Eigenvalues:     4.6994     9.3210    34.7878
     63  Bq   Isotropic =    29.3812   Anisotropy =    26.5249
   XX=    26.4818   YX=    -1.3827   ZX=    -3.7187
   XY=    -3.1602   YY=    30.3048   ZY=    15.2720
   XZ=   -11.4323   YZ=    12.2646   ZZ=    31.3570
   Eigenvalues:    15.6232    25.4559    47.0645
     64  Bq   Isotropic =    13.6512   Anisotropy =    27.4558
   XX=     7.3687   YX=    -1.6876   ZX=    -2.0392
   XY=    -5.8463   YY=    12.0418   ZY=     8.6130
   XZ=   -17.5149   YZ=    10.8544   ZZ=    21.5429
   Eigenvalues:     2.1708     6.8277    31.9550
     65  Bq   Isotropic =    30.6493   Anisotropy =    28.1811
   XX=    27.5123   YX=    -0.4658   ZX=    -4.6640
   XY=    -1.5424   YY=    32.6723   ZY=    18.9678
   XZ=    -8.1797   YZ=    12.9417   ZZ=    31.7632
   Eigenvalues:    14.9576    27.5535    49.4367
     66  Bq   Isotropic =    11.4964   Anisotropy =    26.7874
   XX=     5.0464   YX=    -1.5967   ZX=    -1.9086
   XY=    -5.7195   YY=     9.7403   ZY=     8.0901
   XZ=   -17.1874   YZ=    10.2506   ZZ=    19.7024
   Eigenvalues:     0.2295     4.9050    29.3546
     67  Bq   Isotropic =    28.3368   Anisotropy =    33.7647
   XX=    22.9871   YX=     1.3418   ZX=    -6.1273
   XY=     0.3363   YY=    31.3043   ZY=    24.2196
   XZ=    -4.7410   YZ=    14.6897   ZZ=    30.7190
   Eigenvalues:     9.9931    24.1707    50.8466
     68  Bq   Isotropic =     9.7529   Anisotropy =    25.8592
   XX=     3.3120   YX=    -1.5165   ZX=    -1.8036
   XY=    -5.5031   YY=     7.8816   ZY=     7.6302
   XZ=   -16.6139   YZ=     9.5787   ZZ=    18.0652
   Eigenvalues:    -1.1685     3.4349    26.9924
     69  Bq   Isotropic =    20.1103   Anisotropy =    45.2432
   XX=     8.9604   YX=     4.5431   ZX=    -8.2712
   XY=     2.0959   YY=    23.1248   ZY=    30.7683
   XZ=    -1.9251   YZ=    18.0171   ZZ=    28.2456
   Eigenvalues:    -2.0060    12.0645    50.2724
     70  Bq   Isotropic =    22.8215   Anisotropy =    27.2525
   XX=    18.3678   YX=    -1.8860   ZX=    -2.7032
   XY=    -5.1688   YY=    22.1595   ZY=    11.1667
   XZ=   -15.8752   YZ=    11.9269   ZZ=    27.9373
   Eigenvalues:    10.9593    16.5154    40.9899
     71  Bq   Isotropic =    13.0639   Anisotropy =    22.3849
   XX=     9.5107   YX=    -1.1780   ZX=    -1.0723
   XY=    -5.2836   YY=    15.8946   ZY=     4.7747
   XZ=   -17.5065   YZ=    12.9397   ZZ=    13.7863
   Eigenvalues:     1.2741     9.9304    27.9872
     72  Bq   Isotropic =    17.4939   Anisotropy =    18.8519
   XX=    15.5012   YX=    -0.7244   ZX=    -0.4242
   XY=    -4.8660   YY=    20.8025   ZY=     2.4000
   XZ=   -16.6346   YZ=    11.9346   ZZ=    16.1779
   Eigenvalues:     6.5414    15.8784    30.0618
     73  Bq   Isotropic =    11.0944   Anisotropy =    22.9673
   XX=     7.0560   YX=    -1.2378   ZX=    -1.2686
   XY=    -5.2256   YY=    13.4382   ZY=     5.3193
   XZ=   -17.3727   YZ=    12.8683   ZZ=    12.7889
   Eigenvalues:    -0.6260     7.5033    26.4059
     74  Bq   Isotropic =    19.3398   Anisotropy =    15.5214
   XX=    18.3895   YX=    -0.1248   ZX=     0.0276
   XY=    -4.1269   YY=    22.1586   ZY=     0.4067
   XZ=   -15.3853   YZ=    10.8288   ZZ=    17.4712
   Eigenvalues:     9.5934    18.7386    29.6874
     75  Bq   Isotropic =     9.4149   Anisotropy =    23.0171
   XX=     5.0581   YX=    -1.2539   ZX=    -1.3994
   XY=    -5.0824   YY=    11.2564   ZY=     5.5831
   XZ=   -16.9924   YZ=    12.5240   ZZ=    11.9301
   Eigenvalues:    -2.0421     5.5271    24.7596
     76  Bq   Isotropic =    20.0070   Anisotropy =    11.4015
   XX=    20.1309   YX=     0.9700   ZX=     0.5060
   XY=    -2.7404   YY=    21.2906   ZY=    -2.0009
   XZ=   -13.4845   YZ=     9.6247   ZZ=    18.5993
   Eigenvalues:    12.2171    20.1958    27.6080
     77  Bq   Isotropic =     8.0257   Anisotropy =    22.6850
   XX=     3.4877   YX=    -1.2495   ZX=    -1.4802
   XY=    -4.8896   YY=     9.3928   ZY=     5.6554
   XZ=   -16.4387   YZ=    11.9908   ZZ=    11.1966
   Eigenvalues:    -3.0379     3.9659    23.1490
     78  Bq   Isotropic =    18.2813   Anisotropy =     9.1278
   XX=    19.3024   YX=     2.8343   ZX=     0.8840
   XY=    -0.3987   YY=    16.4366   ZY=    -4.2765
   XZ=   -11.0256   YZ=     9.0860   ZZ=    19.1049
   Eigenvalues:    12.4514    18.0260    24.3665
     79  Bq   Isotropic =     6.8973   Anisotropy =    22.0906
   XX=     2.2871   YX=    -1.2367   ZX=    -1.5241
   XY=    -4.6691   YY=     7.8355   ZY=     5.6024
   XZ=   -15.7692   YZ=    11.3407   ZZ=    10.5693
   Eigenvalues:    -3.6905     2.7581    21.6244
     80  Bq   Isotropic =    12.7154   Anisotropy =    11.4426
   XX=    14.2581   YX=     5.7648   ZX=     0.9263
   XY=     3.2510   YY=     5.8016   ZY=    -5.1587
   XZ=    -8.3387   YZ=    10.5442   ZZ=    18.0864
   Eigenvalues:     2.8038    14.9985    20.3438
     81  Bq   Isotropic =    15.2603   Anisotropy =    21.0842
   XX=    12.3860   YX=    -1.0322   ZX=    -0.7943
   XY=    -5.1971   YY=    18.4712   ZY=     3.8390
   XZ=   -17.3000   YZ=    12.6499   ZZ=    14.9236
   Eigenvalues:     3.6843    12.7802    29.3164
     82  Bq   Isotropic =     5.2524   Anisotropy =    16.7044
   XX=     5.2832   YX=    -0.2670   ZX=    -0.5949
   XY=    -3.8080   YY=    10.8934   ZY=     1.2571
   XZ=   -14.0643   YZ=    11.7131   ZZ=    -0.4194
   Eigenvalues:    -6.5538     5.9224    16.3887
     83  Bq   Isotropic =     6.4612   Anisotropy =    14.5716
   XX=     8.5930   YX=     0.5429   ZX=     0.1788
   XY=    -3.3770   YY=    12.8883   ZY=    -0.8651
   XZ=   -12.7774   YZ=    11.0668   ZZ=    -2.0977
   Eigenvalues:    -5.9115     9.1195    16.1756
     84  Bq   Isotropic =     4.7151   Anisotropy =    17.2030
   XX=     4.0101   YX=    -0.5190   ZX=    -0.8861
   XY=    -3.8688   YY=     9.7311   ZY=     1.9942
   XZ=   -14.2396   YZ=    11.6656   ZZ=     0.4042
   Eigenvalues:    -6.6875     4.6491    16.1838
     85  Bq   Isotropic =     7.0568   Anisotropy =    12.8627
   XX=    10.6135   YX=     1.1511   ZX=     0.6163
   XY=    -2.9506   YY=    13.4327   ZY=    -2.1957
   XZ=   -11.5979   YZ=    10.3215   ZZ=    -2.8756
   Eigenvalues:    -5.4947    11.0332    15.6320
     86  Bq   Isotropic =     4.2446   Anisotropy =    17.4061
   XX=     2.9700   YX=    -0.7009   ZX=    -1.1090
   XY=    -3.8608   YY=     8.5903   ZY=     2.5348
   XZ=   -14.1749   YZ=    11.4326   ZZ=     1.1735
   Eigenvalues:    -6.6910     3.5762    15.8486
     87  Bq   Isotropic =     7.5663   Anisotropy =    10.9152
   XX=    12.8149   YX=     1.9153   ZX=     1.0192
   XY=    -2.3584   YY=    13.4563   ZY=    -3.5753
   XZ=   -10.0819   YZ=     9.3079   ZZ=    -3.5723
   Eigenvalues:    -5.1406    12.9964    14.8431
     88  Bq   Isotropic =     3.8419   Anisotropy =    17.3760
   XX=     2.1345   YX=    -0.8311   ZX=    -1.2702
   XY=    -3.8032   YY=     7.5245   ZY=     2.9113
   XZ=   -13.9255   YZ=    11.0644   ZZ=     1.8669
   Eigenvalues:    -6.5840     2.6839    15.4260
     89  Bq   Isotropic =     7.9186   Anisotropy =    11.7514
   XX=    15.0982   YX=     2.8205   ZX=     1.3045
   XY=    -1.6120   YY=    12.8424   ZY=    -4.8198
   XZ=    -8.3270   YZ=     8.0754   ZZ=    -4.1848
   Eigenvalues:    -4.9681    12.9710    15.7528
     90  Bq   Isotropic =     3.5020   Anisotropy =    17.1683
   XX=     1.4728   YX=    -0.9231   ZX=    -1.3792
   XY=    -3.7106   YY=     6.5602   ZY=     3.1579
   XZ=   -13.5409   YZ=    10.6062   ZZ=     2.4729
   Eigenvalues:    -6.3918     1.9503    14.9475
     91  Bq   Isotropic =     8.0580   Anisotropy =    14.8370
   XX=    17.3215   YX=     3.8066   ZX=     1.3762
   XY=    -0.7675   YY=    11.5964   ZY=    -5.7005
   XZ=    -6.5062   YZ=     6.6865   ZZ=    -4.7440
   Eigenvalues:    -5.0648    11.2894    17.9493
     92  Bq   Isotropic =     5.8439   Anisotropy =    15.8457
   XX=     6.8094   YX=     0.0783   ZX=    -0.2356
   XY=    -3.6537   YY=    11.9885   ZY=     0.3024
   XZ=   -13.5926   YZ=    11.5260   ZZ=    -1.2661
   Eigenvalues:    -6.2866     7.4106    16.4077
     93  Bq   Isotropic =     0.7686   Anisotropy =    12.3540
   XX=     2.6874   YX=     0.0152   ZX=    -1.3091
   XY=    -2.5018   YY=     6.8588   ZY=    -1.0226
   XZ=   -11.9140   YZ=     6.8412   ZZ=    -7.2405
   Eigenvalues:   -10.7863     4.0875     9.0046
     94  Bq   Isotropic =     0.4155   Anisotropy =    11.8514
   XX=     3.8716   YX=     0.7486   ZX=    -0.9858
   XY=    -1.9194   YY=     7.8367   ZY=    -2.7486
   XZ=   -11.1390   YZ=     5.2658   ZZ=   -10.4618
   Eigenvalues:   -12.7289     5.6589     8.3164
     95  Bq   Isotropic =     0.9073   Anisotropy =    12.6394
   XX=     2.1772   YX=    -0.2606   ZX=    -1.4300
   XY=    -2.6788   YY=     6.3162   ZY=    -0.3207
   XZ=   -12.0275   YZ=     7.3216   ZZ=    -5.7716
   Eigenvalues:    -9.9524     3.3407     9.3335
     96  Bq   Isotropic =     0.2026   Anisotropy =    12.0490
   XX=     4.5221   YX=     1.2049   ZX=    -0.8009
   XY=    -1.5012   YY=     8.2140   ZY=    -3.7435
   XZ=   -10.4552   YZ=     4.1473   ZZ=   -12.1282
   Eigenvalues:   -13.8531     6.2257     8.2353
     97  Bq   Isotropic =     1.0222   Anisotropy =    12.8598
   XX=     1.7276   YX=    -0.4818   ZX=    -1.5197
   XY=    -2.7925   YY=     5.7705   ZY=     0.2711
   XZ=   -11.9878   YZ=     7.6278   ZZ=    -4.4316
   Eigenvalues:    -9.1940     2.6652     9.5954
     98  Bq   Isotropic =    -0.0303   Anisotropy =    13.0445
   XX=     5.1839   YX=     1.7089   ZX=    -0.6207
   XY=    -0.9985   YY=     8.4783   ZY=    -4.7862
   XZ=    -9.5823   YZ=     2.8172   ZZ=   -13.7530
   Eigenvalues:   -15.0719     6.3149     8.6661
     99  Bq   Isotropic =     1.1157   Anisotropy =    12.9938
   XX=     1.3382   YX=    -0.6551   ZX=    -1.5795
   XY=    -2.8529   YY=     5.2398   ZY=     0.7592
   XZ=   -11.8213   YZ=     7.7867   ZZ=    -3.2308
   Eigenvalues:    -8.5000     2.0689     9.7782
    100  Bq   Isotropic =    -0.2777   Anisotropy =    14.5760
   XX=     5.8268   YX=     2.2394   ZX=    -0.4646
   XY=    -0.4222   YY=     8.6068   ZY=    -5.8319
   XZ=    -8.5479   YZ=     1.3062   ZZ=   -15.2667
   Eigenvalues:   -16.3554     6.0827     9.4396
    101  Bq   Isotropic =     1.1907   Anisotropy =    13.0351
   XX=     1.0062   YX=    -0.7874   ZX=    -1.6123
   XY=    -2.8695   YY=     4.7366   ZY=     1.1533
   XZ=   -11.5545   YZ=     7.8252   ZZ=    -2.1707
   Eigenvalues:    -7.8610     1.5524     9.8807
    102  Bq   Isotropic =    -0.5319   Anisotropy =    16.2133
   XX=     6.4157   YX=     2.7651   ZX=    -0.3517
   XY=     0.2061   YY=     8.5866   ZY=    -6.8276
   XZ=    -7.3943   YZ=    -0.3353   ZZ=   -16.5981
   Eigenvalues:   -17.6487     5.7760    10.2769
    103  Bq   Isotropic =     0.6047   Anisotropy =    12.0531
   XX=     3.2550   YX=     0.3509   ZX=    -1.1590
   XY=    -2.2514   YY=     7.3749   ZY=    -1.8349
   XZ=   -11.6235   YZ=     6.1618   ZZ=    -8.8159
   Eigenvalues:   -11.7082     4.8821     8.6401
    104  Bq   Isotropic =    -0.2192   Anisotropy =    10.2215
   XX=     2.0993   YX=    -0.4965   ZX=    -2.0192
   XY=    -2.2127   YY=     3.6974   ZY=    -1.7311
   XZ=   -10.7972   YZ=     4.1139   ZZ=    -6.4543
   Eigenvalues:    -9.8944     2.6417     6.5952
    105  Bq   Isotropic =    -0.4945   Anisotropy =     9.6000
   XX=     2.8778   YX=    -0.0174   ZX=    -1.9601
   XY=    -1.7041   YY=     4.0828   ZY=    -3.1371
   XZ=   -10.6150   YZ=     2.4180   ZZ=    -8.4442
   Eigenvalues:   -11.2737     3.8847     5.9055
    106  Bq   Isotropic =    -0.0810   Anisotropy =    10.5006
   XX=     1.7538   YX=    -0.6752   ZX=    -2.0167
   XY=    -2.3637   YY=     3.5098   ZY=    -1.1295
   XZ=   -10.7207   YZ=     4.7452   ZZ=    -5.5067
   Eigenvalues:    -9.2586     2.0961     6.9194
    107  Bq   Isotropic =    -0.6205   Anisotropy =     9.5569
   XX=     3.2977   YX=     0.2851   ZX=    -1.8936
   XY=    -1.3269   YY=     4.2901   ZY=    -3.9160
   XZ=   -10.3189   YZ=     1.3663   ZZ=    -9.4494
   Eigenvalues:   -12.0187     4.4064     5.7508
    108  Bq   Isotropic =     0.0520   Anisotropy =    10.7130
   XX=     1.4421   YX=    -0.8176   ZX=    -1.9963
   XY=    -2.4599   YY=     3.3229   ZY=    -0.6018
   XZ=   -10.5572   YZ=     5.2382   ZZ=    -4.6090
   Eigenvalues:    -8.6550     1.6171     7.1940
    109  Bq   Isotropic =    -0.7299   Anisotropy =    10.2894
   XX=     3.7247   YX=     0.6267   ZX=    -1.7997
   XY=    -0.8583   YY=     4.5166   ZY=    -4.7150
   XZ=    -9.8633   YZ=     0.2082   ZZ=   -10.4312
   Eigenvalues:   -12.7939     4.4744     6.1297
    110  Bq   Isotropic =     0.1776   Anisotropy =    10.8499
   XX=     1.1656   YX=    -0.9277   ZX=    -1.9610
   XY=    -2.5107   YY=     3.1372   ZY=    -0.1469
   XZ=   -10.3236   YZ=     5.6046   ZZ=    -3.7701
   Eigenvalues:    -8.0812     1.2031     7.4109
    111  Bq   Isotropic =    -0.8165   Anisotropy =    11.5803
   XX=     4.1455   YX=     1.0001   ZX=    -1.6763
   XY=    -0.2973   YY=     4.7694   ZY=    -5.4998
   XZ=    -9.2341   YZ=    -1.0162   ZZ=   -11.3644
   Eigenvalues:   -13.5838     4.2305     6.9037
    112  Bq   Isotropic =     0.2942   Anisotropy =    10.9109
   XX=     0.9240   YX=    -1.0098   ZX=    -1.9137
   XY=    -2.5248   YY=     2.9540   ZY=     0.2388
   XZ=   -10.0356   YZ=     5.8587   ZZ=    -2.9955
   Eigenvalues:    -7.5356     0.8500     7.5681
    113  Bq   Isotropic =    -0.8755   Anisotropy =    13.0001
   XX=     4.5444   YX=     1.3933   ZX=    -1.5212
   XY=     0.3496   YY=     5.0524   ZY=    -6.2277
   XZ=    -8.4210   YZ=    -2.2521   ZZ=   -12.2231
   Eigenvalues:   -14.3606     3.9430     7.7913
    114  Bq   Isotropic =    -0.3587   Anisotropy =     9.8997
   XX=     2.4758   YX=    -0.2779   ZX=    -2.0012
   XY=    -1.9963   YY=     3.8872   ZY=    -2.4034
   XZ=   -10.7682   YZ=     3.3378   ZZ=    -7.4390
   Eigenvalues:   -10.5654     3.2482     6.2411
    115  Bq   Isotropic =    -0.0890   Anisotropy =    10.5881
   XX=     2.1408   YX=    -1.3742   ZX=    -2.2956
   XY=    -2.6929   YY=     1.9498   ZY=    -0.8498
   XZ=    -9.3348   YZ=     4.4385   ZZ=    -4.3576
   Eigenvalues:    -7.7990     0.5623     6.9697
    116  Bq   Isotropic =     0.0699   Anisotropy =    10.6518
   XX=     3.1256   YX=    -1.2033   ZX=    -2.4725
   XY=    -2.4925   YY=     2.0797   ZY=    -1.7066
   XZ=    -9.6420   YZ=     3.4272   ZZ=    -4.9955
   Eigenvalues:    -8.2285     1.2671     7.1712
    117  Bq   Isotropic =    -0.0976   Anisotropy =    10.5345
   XX=     1.7611   YX=    -1.4164   ZX=    -2.2081
   XY=    -2.7129   YY=     1.9213   ZY=    -0.4876
   XZ=    -9.1237   YZ=     4.8061   ZZ=    -3.9751
   Eigenvalues:    -7.5229     0.3047     6.9255
    118  Bq   Isotropic =     0.2488   Anisotropy =    10.7014
   XX=     3.7616   YX=    -1.0588   ZX=    -2.5597
   XY=    -2.2794   YY=     2.2160   ZY=    -2.1956
   XZ=    -9.7147   YZ=     2.7794   ZZ=    -5.2311
   Eigenvalues:    -8.3663     1.7296     7.3831
    119  Bq   Isotropic =    -0.0754   Anisotropy =    10.4540
   XX=     1.4398   YX=    -1.4380   ZX=    -2.1209
   XY=    -2.6965   YY=     1.9005   ZY=    -0.1692
   XZ=    -8.8846   YZ=     5.0897   ZZ=    -3.5665
   Eigenvalues:    -7.2167     0.0966     6.8940
    120  Bq   Isotropic =     0.5134   Anisotropy =    10.8084
   XX=     4.5166   YX=    -0.8623   ZX=    -2.6397
   XY=    -1.9646   YY=     2.4295   ZY=    -2.7149
   XZ=    -9.7080   YZ=     2.0414   ZZ=    -5.4060
   Eigenvalues:    -8.4425     2.2636     7.7190
    121  Bq   Isotropic =    -0.0322   Anisotropy =    10.3437
   XX=     1.1675   YX=    -1.4438   ZX=    -2.0337
   XY=    -2.6534   YY=     1.8799   ZY=     0.1075
   XZ=    -8.6233   YZ=     5.2971   ZZ=    -3.1440
   Eigenvalues:    -6.8885    -0.0717     6.8636
    122  Bq   Isotropic =     0.8756   Anisotropy =    11.0208
   XX=     5.4071   YX=    -0.6037   ZX=    -2.6999
   XY=    -1.5264   YY=     2.7452   ZY=    -3.2491
   XZ=    -9.5891   YZ=     1.2248   ZZ=    -5.5255
   Eigenvalues:    -8.4487     2.8527     8.2228
    123  Bq   Isotropic =     0.0244   Anisotropy =    10.2036
   XX=     0.9367   YX=    -1.4372   ZX=    -1.9463
   XY=    -2.5911   YY=     1.8553   ZY=     0.3453
   XZ=    -8.3448   YZ=     5.4371   ZZ=    -2.7188
   Eigenvalues:    -6.5459    -0.2076     6.8268
    124  Bq   Isotropic =     1.3417   Anisotropy =    11.3836
   XX=     6.4422   YX=    -0.2746   ZX=    -2.7166
   XY=    -0.9446   YY=     3.1863   ZY=    -3.7728
   XZ=    -9.3073   YZ=     0.3496   ZZ=    -5.6035
   Eigenvalues:    -8.3754     3.4697     8.9308
    125  Bq   Isotropic =    -0.0378   Anisotropy =    10.6223
   XX=     2.5908   YX=    -1.3056   ZX=    -2.3839
[...]
   170  Bq   0.000000
   171  Bq   0.000000
   172  Bq   0.000000
   173  Bq   0.000000
   174  Bq   0.000000
   175  Bq   0.000000
   176  Bq   0.000000
   177  Bq   0.000000
   178  Bq   0.000000
   179  Bq   0.000000
   180  Bq   0.000000
   181  Bq   0.000000
   182  Bq   0.000000
   183  Bq   0.000000
   184  Bq   0.000000
   185  Bq   0.000000
   186  Bq   0.000000
   187  Bq   0.000000
   188  Bq   0.000000
   189  Bq   0.000000
   190  Bq   0.000000
   191  Bq   0.000000
   192  Bq   0.000000
   193  Bq   0.000000
   194  Bq   0.000000
   195  Bq   0.000000
   196  Bq   0.000000
   197  Bq   0.000000
   198  Bq   0.000000
   199  Bq   0.000000
   200  Bq   0.000000
   201  Bq   0.000000
   202  Bq   0.000000
   203  Bq   0.000000
   204  Bq   0.000000
   205  Bq   0.000000
   206  Bq   0.000000
   207  Bq   0.000000
   208  Bq   0.000000
   209  Bq   0.000000
   210  Bq   0.000000
   211  Bq   0.000000
   212  Bq   0.000000
   213  Bq   0.000000
   214  Bq   0.000000
   215  Bq   0.000000
   216  Bq   0.000000
   217  Bq   0.000000
   218  Bq   0.000000
   219  Bq   0.000000
   220  Bq   0.000000
   221  Bq   0.000000
   222  Bq   0.000000
   223  Bq   0.000000
   224  Bq   0.000000
   225  Bq   0.000000
   226  Bq   0.000000
   227  Bq   0.000000
   228  Bq   0.000000
   229  Bq   0.000000
   230  Bq   0.000000
   231  Bq   0.000000
   232  Bq   0.000000
   233  Bq   0.000000
   234  Bq   0.000000
   235  Bq   0.000000
   236  Bq   0.000000
 Sum of Mulliken charges =   0.00000
 Mulliken charges with hydrogens summed into heavy atoms:
               1
     1  C   -0.255498
     3  C    0.053849
     5  C    0.448258
     6  C    0.064351
     7  C   -0.333926
     9  C   -0.139521
    11  C   -0.322216
    13  C   -0.119315
    15  C    0.653397
    16  C    0.034822
    17  C   -0.317410
    19  C   -0.316854
    21  C    0.651066
    22  C    0.037784
    23  C   -0.117289
    25  C   -0.205316
    27  C    0.448331
    28  C    0.061983
    29  C   -0.333381
    31  C   -0.139505
    33  C   -0.255977
    35  C    0.170579
    37  Bq   0.000000
    38  Bq   0.000000
    39  Bq   0.000000
    40  Bq   0.000000
    41  Bq   0.000000
    42  Bq   0.000000
    43  Bq   0.000000
    44  Bq   0.000000
    45  Bq   0.000000
    46  Bq   0.000000
    47  Bq   0.000000
    48  Bq   0.000000
    49  Bq   0.000000
    50  Bq   0.000000
    51  Bq   0.000000
    52  Bq   0.000000
    53  Bq   0.000000
    54  Bq   0.000000
    55  Bq   0.000000
    56  Bq   0.000000
    57  Bq   0.000000
    58  Bq   0.000000
    59  Bq   0.000000
    60  Bq   0.000000
    61  Bq   0.000000
    62  Bq   0.000000
    63  Bq   0.000000
    64  Bq   0.000000
    65  Bq   0.000000
    66  Bq   0.000000
    67  Bq   0.000000
    68  Bq   0.000000
    69  Bq   0.000000
    70  Bq   0.000000
    71  Bq   0.000000
    72  Bq   0.000000
    73  Bq   0.000000
    74  Bq   0.000000
    75  Bq   0.000000
    76  Bq   0.000000
    77  Bq   0.000000
    78  Bq   0.000000
    79  Bq   0.000000
    80  Bq   0.000000
    81  Bq   0.000000
    82  Bq   0.000000
    83  Bq   0.000000
    84  Bq   0.000000
    85  Bq   0.000000
    86  Bq   0.000000
    87  Bq   0.000000
    88  Bq   0.000000
    89  Bq   0.000000
    90  Bq   0.000000
    91  Bq   0.115559
    92  Bq   0.000000
    93  Bq   0.000000
    94  Bq   0.000000
    95  Bq   0.000000
    96  Bq   0.000000
    97  Bq   0.000000
    98  Bq   0.000000
    99  Bq   0.000000
   100  Bq   0.000000
   101  Bq   0.000000
   102  Bq   0.000000
   103  Bq   0.000000
   104  Bq   0.000000
   105  Bq   0.000000
   106  Bq   0.000000
   107  Bq   0.000000
   108  Bq   0.000000
   109  Bq   0.000000
   110  Bq   0.000000
   111  Bq   0.000000
   112  Bq   0.000000
   113  Bq   0.000000
   114  Bq   0.000000
   115  Bq   0.000000
   116  Bq   0.000000
   117  Bq   0.000000
   118  Bq   0.000000
   119  Bq   0.000000
   120  Bq   0.000000
   121  Bq   0.000000
   122  Bq   0.000000
   123  Bq   0.000000
   124  Bq   0.000000
   125  Bq   0.000000
   126  Bq   0.000000
   127  Bq   0.000000
   128  Bq   0.000000
   129  Bq   0.000000
   130  Bq   0.000000
   131  Bq   0.000000
   132  Bq   0.000000
   133  Bq   0.000000
   134  Bq   0.000000
   135  Bq   0.116228
   136  Bq   0.000000
   137  Bq   0.000000
   138  Bq   0.000000
   139  Bq   0.000000
   140  Bq   0.000000
   141  Bq   0.000000
   142  Bq   0.000000
   143  Bq   0.000000
   144  Bq   0.000000
   145  Bq   0.000000
   146  Bq   0.000000
   147  Bq   0.000000
   148  Bq   0.000000
   149  Bq   0.000000
   150  Bq   0.000000
   151  Bq   0.000000
   152  Bq   0.000000
   153  Bq   0.000000
   154  Bq   0.000000
   155  Bq   0.000000
   156  Bq   0.000000
   157  Bq   0.000000
   158  Bq   0.000000
   159  Bq   0.000000
   160  Bq   0.000000
   161  Bq   0.000000
   162  Bq   0.000000
   163  Bq   0.000000
   164  Bq   0.000000
   165  Bq   0.000000
   166  Bq   0.000000
   167  Bq   0.000000
   168  Bq   0.000000
   169  Bq   0.000000
   170  Bq   0.000000
   171  Bq   0.000000
   172  Bq   0.000000
   173  Bq   0.000000
   174  Bq   0.000000
   175  Bq   0.000000
   176  Bq   0.000000
   177  Bq   0.000000
   178  Bq   0.000000
   179  Bq   0.000000
   180  Bq   0.000000
   181  Bq   0.000000
   182  Bq   0.000000
   183  Bq   0.000000
   184  Bq   0.000000
   185  Bq   0.000000
   186  Bq   0.000000
   187  Bq   0.000000
   188  Bq   0.000000
   189  Bq   0.000000
   190  Bq   0.000000
   191  Bq   0.000000
   192  Bq   0.000000
   193  Bq   0.000000
   194  Bq   0.000000
   195  Bq   0.000000
   196  Bq   0.000000
   197  Bq   0.000000
   198  Bq   0.000000
   199  Bq   0.000000
   200  Bq   0.000000
   201  Bq   0.000000
   202  Bq   0.000000
   203  Bq   0.000000
   204  Bq   0.000000
   205  Bq   0.000000
   206  Bq   0.000000
   207  Bq   0.000000
   208  Bq   0.000000
   209  Bq   0.000000
   210  Bq   0.000000
   211  Bq   0.000000
   212  Bq   0.000000
   213  Bq   0.000000
   214  Bq   0.000000
   215  Bq   0.000000
   216  Bq   0.000000
   217  Bq   0.000000
   218  Bq   0.000000
   219  Bq   0.000000
   220  Bq   0.000000
   221  Bq   0.000000
   222  Bq   0.000000
   223  Bq   0.000000
   224  Bq   0.000000
   225  Bq   0.000000
   226  Bq   0.000000
   227  Bq   0.000000
   228  Bq   0.000000
   229  Bq   0.000000
   230  Bq   0.000000
   231  Bq   0.000000
   232  Bq   0.000000
   233  Bq   0.000000
   234  Bq   0.000000
   235  Bq   0.000000
   236  Bq   0.000000
 Electronic spatial extent (au):  <R**2>=           5736.9264
 Charge=              0.0000 electrons
 Dipole moment (field-independent basis, Debye):
    X=              0.0475    Y=              0.0856    Z=              0.0029  Tot=              0.0979
 Quadrupole moment (field-independent basis, Debye-Ang):
   XX=           -113.7056   YY=           -113.9456   ZZ=           -133.2669
   XY=             -0.3834   XZ=              3.2102   YZ=             -1.1839
 Traceless Quadrupole moment (field-independent basis, Debye-Ang):
   XX=              6.6005   YY=              6.3604   ZZ=            -12.9609
   XY=             -0.3834   XZ=              3.2102   YZ=             -1.1839
 Octapole moment (field-independent basis, Debye-Ang**2):
  XXX=            -16.4668  YYY=            -16.1860  ZZZ=             -1.7007  XYY=              2.5576
  XXY=             -6.5650  XXZ=             13.6547  XZZ=             -8.9478  YZZ=            -17.7168
  YYZ=            -13.2941  XYZ=              8.8036
 Hexadecapole moment (field-independent basis, Debye-Ang**3):
 XXXX=          -3951.1638 YYYY=          -3112.2161 ZZZZ=           -504.8311 XXXY=            340.6935
 XXXZ=            156.4968 YYYX=            335.5625 YYYZ=            -87.0893 ZZZX=            120.2262
 ZZZY=           -108.7373 XXYY=          -1176.4844 XXZZ=           -856.7291 YYZZ=           -665.7275
 XXYZ=            -68.9016 YYXZ=             48.1602 ZZXY=            153.0375
 N-N= 1.610917615562D+03 E-N=-5.186891130729D+03  KE= 8.436329774449D+02
 1\1\GINC-ARMILIA\SP\RB3LYP\6-311+G(d,p)\C22H14\YANNICK\14-Aug-2020\0\\
 # rb3lyp/6-311+g** NMR geom=connectivity\\Title\\0,1\C,0,-4.0500558,-0
 .5771862,0.8136712\H,0,-5.0263804,-1.0082727,1.002476\C,0,-3.9381552,0
 .6617804,0.2400876\H,0,-4.8252424,1.233889,-0.0111295\C,0,-2.676841,1.
 2433246,0.0057578\C,0,-1.4974121,0.5051527,0.2848253\C,0,-1.6508332,-0
 .7338728,0.9404026\H,0,-0.7713646,-1.2730967,1.2633753\C,0,-2.8898548,
 -1.2624035,1.1994307\H,0,-2.9683706,-2.2124563,1.7152676\C,0,-2.577318
 5,2.5963696,-0.419293\H,0,-3.4870728,3.1412239,-0.6474055\C,0,-1.37418
 95,3.2147896,-0.436403\H,0,-1.2997315,4.2742019,-0.6578144\C,0,-0.1719
 488,2.499409,-0.1734588\C,0,-0.2043917,1.1018437,0.0192689\C,0,1.05134
 91,3.204256,-0.0676222\H,0,1.0427344,4.2819499,-0.1896997\C,0,2.194209
 1,2.5487446,0.2579577\H,0,3.1168527,3.0912848,0.4334727\C,0,2.2216473,
 1.1336562,0.293499\C,0,1.0486931,0.3945528,0.0302412\C,0,3.4483363,0.4
 614633,0.5573939\H,0,4.3095794,1.0606054,0.8334846\C,0,3.5427346,-0.88
 55926,0.4749463\H,0,4.4731467,-1.3939704,0.7038822\C,0,2.4490052,-1.64
 74447,-0.0196319\C,0,1.2150704,-1.0057258,-0.3013573\C,0,0.2531113,-1.
 743444,-1.0216591\H,0,-0.6541356,-1.2535051,-1.3462847\C,0,0.4494193,-
 3.0628597,-1.3413779\H,0,-0.3083162,-3.5944309,-1.905406\C,0,1.6251726
 ,-3.7207967,-0.9552541\H,0,1.7670048,-4.7687404,-1.1927019\C,0,2.61098
 72,-3.0144177,-0.318305\H,0,3.5525612,-3.4902813,-0.0646367\Bq,0,-1.41
 70169333,1.8601482,-0.1198838\Bq,0,-3.9816383794,-0.2933051073,1.45978
 56881\Bq,0,-3.9739544167,-0.3424037421,1.2660583519\Bq,0,-3.9854803607
 ,-0.26875579,1.5566493562\Bq,0,-3.9701124354,-0.3669530595,1.169194683
 8\Bq,0,-3.989322342,-0.2442064726,1.6535130242\Bq,0,-3.9662704541,-0.3
 915023768,1.0723310157\Bq,0,-3.9931643234,-0.2196571552,1.7503766923\B
 q,0,-3.9624284727,-0.4160516942,0.9754673476\Bq,0,-3.9970063047,-0.195
 1078378,1.8472403604\Bq,0,-3.9585864914,-0.4406010116,0.8786036795\Bq,
 0,-3.9777963981,-0.3178544247,1.36292202\Bq,0,-3.9767736083,0.19139405
 24,1.3371355409\Bq,0,-3.9690896456,0.1422954176,1.1434082048\Bq,0,-3.9
 806155896,0.2159433697,1.433999209\Bq,0,-3.9652476643,0.1177461002,1.0
 465445367\Bq,0,-3.9844575709,0.2404926871,1.5308628771\Bq,0,-3.9614056
 829,0.0931967828,0.9496808686\Bq,0,-3.9882995523,0.2650420045,1.627726
 5452\Bq,0,-3.9575637016,0.0686474655,0.8528172005\Bq,0,-3.9921415336,0
 .2895913219,1.7245902133\Bq,0,-3.9537217203,0.0440981481,0.7559535324\
 Bq,0,-3.9729316269,0.166844735,1.2402718728\Bq,0,-3.9719088371,0.67609
 3212,1.2144853938\Bq,0,-3.9642248745,0.6269945773,1.0207580576\Bq,0,-3
 .9757508185,0.7006425294,1.3113490619\Bq,0,-3.9603828932,0.6024452599,
 0.9238943895\Bq,0,-3.9795927998,0.7251918468,1.40821273\Bq,0,-3.956540
 9118,0.5778959425,0.8270307214\Bq,0,-3.9834347811,0.7497411642,1.50507
 63981\Bq,0,-3.9526989305,0.5533466252,0.7301670533\Bq,0,-3.9872767625,
 0.7742904816,1.6019400662\Bq,0,-3.9488569492,0.5287973078,0.6333033853
 \Bq,0,-3.9680668558,0.6515438947,1.1176217257\Bq,0,-3.967044066,1.1607
 923717,1.0918352467\Bq,0,-3.9593601034,1.111693737,0.8981079105\Bq,0,-
 3.9708860474,1.1853416891,1.1886989147\Bq,0,-3.955518122,1.0871444196,
 0.8012442424\Bq,0,-3.9747280287,1.2098910065,1.2855625828\Bq,0,-3.9516
 761407,1.0625951022,0.7043805743\Bq,0,-3.97857001,1.2344403239,1.38242
 62509\Bq,0,-3.9478341594,1.0380457849,0.6075169062\Bq,0,-3.9824119913,
 1.2589896412,1.479289919\Bq,0,-3.943992178,1.0134964675,0.5106532381\B
 q,0,-3.9632020847,1.1362430544,0.9949715786\Bq,0,-3.9621792949,1.64549
 15314,0.9691850995\Bq,0,-3.9544953322,1.5963928967,0.7754577633\Bq,0,-
 3.9660212762,1.6700408488,1.0660487676\Bq,0,-3.9506533509,1.5718435793
 ,0.6785940953\Bq,0,-3.9698632576,1.6945901662,1.1629124357\Bq,0,-3.946
 8113696,1.5472942619,0.5817304272\Bq,0,-3.9737052389,1.7191394836,1.25
 97761038\Bq,0,-3.9429693883,1.5227449446,0.4848667591\Bq,0,-3.97754722
 02,1.7436888009,1.3566397719\Bq,0,-3.9391274069,1.4981956272,0.3880030
 91\Bq,0,-3.9583373136,1.6209422141,0.8723214314\Bq,0,-3.9573145238,2.1
 301906911,0.8465349524\Bq,0,-3.9496305611,2.0810920564,0.6528076162\Bq
 ,0,-3.9611565051,2.1547400085,0.9433986205\Bq,0,-3.9457885798,2.056542
 739,0.5559439481\Bq,0,-3.9649984864,2.1792893259,1.0402622886\Bq,0,-3.
 9419465985,2.0319934216,0.45908028\Bq,0,-3.9688404678,2.2038386433,1.1
 371259567\Bq,0,-3.9381046171,2.0074441043,0.3622166119\Bq,0,-3.9726824
 491,2.2283879606,1.2339896247\Bq,0,-3.9342626358,1.9828947869,0.265352
 9438\Bq,0,-3.9534725424,2.1056413738,0.7496712843\Bq,0,-3.9524497527,2
 .6148898508,0.7238848053\Bq,0,-3.94476579,2.5657912161,0.5301574691\Bq
 ,0,-3.956291734,2.6394391682,0.8207484733\Bq,0,-3.9409238087,2.5412418
 987,0.433293801\Bq,0,-3.9601337153,2.6639884856,0.9176121414\Bq,0,-3.9
 370818273,2.5166925813,0.3364301329\Bq,0,-3.9639756966,2.688537803,1.0
 144758095\Bq,0,-3.933239846,2.492143264,0.2395664648\Bq,0,-3.967817678
 ,2.7130871203,1.1113394776\Bq,0,-3.9293978647,2.4675939466,0.142702796
 7\Bq,0,-3.9486077713,2.5903405335,0.6270211372\Bq,0,-3.9475849815,3.09
 95890105,0.6012346581\Bq,0,-3.9399010189,3.0504903758,0.4075073219\Bq,
 0,-3.9514269629,3.1241383279,0.6980983262\Bq,0,-3.9360590375,3.0259410
 584,0.3106436538\Bq,0,-3.9552689442,3.1486876453,0.7949619943\Bq,0,-3.
 9322170562,3.001391741,0.2137799858\Bq,0,-3.9591109255,3.1732369627,0.
 8918256624\Bq,0,-3.9283750749,2.9768424236,0.1169163177\Bq,0,-3.962952
 9068,3.19778628,0.9886893305\Bq,0,-3.9245330936,2.9522931063,0.0200526
 496\Bq,0,-3.9437430002,3.0750396931,0.50437099\Bq,0,-3.9427202104,3.58
 42881702,0.478584511\Bq,0,-3.9350362478,3.5351895355,0.2848571748\Bq,0
 ,-3.9465621917,3.6088374876,0.5754481791\Bq,0,-3.9311942664,3.51064021
 81,0.1879935067\Bq,0,-3.9504041731,3.633386805,0.6723118472\Bq,0,-3.92
 73522851,3.4860909007,0.0911298386\Bq,0,-3.9542461544,3.6579361223,0.7
 691755153\Bq,0,-3.9235103038,3.4615415833,-0.0057338295\Bq,0,-3.958088
 1357,3.6824854397,0.8660391833\Bq,0,-3.9196683224,3.436992266,-0.10259
 74976\Bq,0,-3.9388782291,3.5597388528,0.3817208429\Bq,0,-3.9378554393,
 4.0689873299,0.3559343638\Bq,0,-3.9301714766,4.0198886952,0.1622070277
 \Bq,0,-3.9416974206,4.0935366473,0.4527980319\Bq,0,-3.9263294953,3.995
 3393778,0.0653433596\Bq,0,-3.9455394019,4.1180859647,0.5496617\Bq,0,-3
 .922487514,3.9707900604,-0.0315203085\Bq,0,-3.9493813833,4.142635282,0
 .6465253681\Bq,0,-3.9186455326,3.946240743,-0.1283839766\Bq,0,-3.95322
 33646,4.1671845994,0.7433890362\Bq,0,-3.9148035513,3.9216914257,-0.225
 2476447\Bq,0,-3.934013458,4.0444380125,0.2590706958\Bq,0,-3.9329906682
 ,4.5536864896,0.2332842167\Bq,0,-3.9253067055,4.5045878549,0.039556880
 5\Bq,0,-3.9368326495,4.578235807,0.3301478848\Bq,0,-3.9214647242,4.480
 0385375,-0.0573067876\Bq,0,-3.9406746308,4.6027851244,0.4270115529\Bq,
 0,-3.9176227428,4.4554892201,-0.1541704557\Bq,0,-3.9445166122,4.627334
 4417,0.523875221\Bq,0,-3.9137807615,4.4309399027,-0.2510341237\Bq,0,-3
 .9483585935,4.6518837591,0.6207388891\Bq,0,-3.9099387802,4.4063905854,
 -0.3478977918\Bq,0,-3.9291486868,4.5291371722,0.1364205486\Bq,0,-3.482
 0312202,-0.2933051073,1.4796020074\Bq,0,-3.4743472576,-0.3424037421,1.
 2858746712\Bq,0,-3.4858732016,-0.26875579,1.5764656755\Bq,0,-3.4705052
 762,-0.3669530595,1.1890110031\Bq,0,-3.4897151829,-0.2442064726,1.6733
 293436\Bq,0,-3.4666632949,-0.3915023768,1.092147335\Bq,0,-3.4935571642
 ,-0.2196571552,1.7701930117\Bq,0,-3.4628213136,-0.4160516942,0.9952836
 669\Bq,0,-3.4973991455,-0.1951078378,1.8670566797\Bq,0,-3.4589793322,-
 0.4406010116,0.8984199988\Bq,0,-3.4781892389,-0.3178544247,1.382738339
 3\Bq,0,-3.4771664491,0.1913940524,1.3569518603\Bq,0,-3.4694824864,0.14
 22954176,1.1632245241\Bq,0,-3.4810084304,0.2159433697,1.4538155283\Bq,
 0,-3.4656405051,0.1177461002,1.066360856\Bq,0,-3.4848504118,0.24049268
 71,1.5506791964\Bq,0,-3.4617985238,0.0931967828,0.9694971879\Bq,0,-3.4
 886923931,0.2650420045,1.6475428645\Bq,0,-3.4579565425,0.0686474655,0.
 8726335198\Bq,0,-3.4925343744,0.2895913219,1.7444065326\Bq,0,-3.454114
 5611,0.0440981481,0.7757698517\Bq,0,-3.4733244678,0.166844735,1.260088
 1922\Bq,0,-3.472301678,0.676093212,1.2343017131\Bq,0,-3.4646177153,0.6
 269945773,1.0405743769\Bq,0,-3.4761436593,0.7006425294,1.3311653812\Bq
 ,0,-3.460775734,0.6024452599,0.9437107088\Bq,0,-3.4799856406,0.7251918
 468,1.4280290493\Bq,0,-3.4569337527,0.5778959425,0.8468470408\Bq,0,-3.
 483827622,0.7497411642,1.5248927174\Bq,0,-3.4530917713,0.5533466252,0.
 7499833727\Bq,0,-3.4876696033,0.7742904816,1.6217563855\Bq,0,-3.449249
 79,0.5287973078,0.6531197046\Bq,0,-3.4684596966,0.6515438947,1.1374380
 45\Bq,0,-3.4674369069,1.1607923717,1.111651566\Bq,0,-3.4597529442,1.11
 1693737,0.9179242298\Bq,0,-3.4712788882,1.1853416891,1.2085152341\Bq,0
 ,-3.4559109629,1.0871444196,0.8210605617\Bq,0,-3.4751208695,1.20989100
 65,1.3053789022\Bq,0,-3.4520689815,1.0625951022,0.7241968936\Bq,0,-3.4
 789628508,1.2344403239,1.4022425702\Bq,0,-3.4482270002,1.0380457849,0.
 6273332255\Bq,0,-3.4828048322,1.2589896412,1.4991062383\Bq,0,-3.444385
 0189,1.0134964675,0.5304695574\Bq,0,-3.4635949255,1.1362430544,1.01478
 78979\Bq,0,-3.4625721357,1.6454915314,0.9890014188\Bq,0,-3.4548881731,
 1.5963928967,0.7952740827\Bq,0,-3.4664141171,1.6700408488,1.0858650869
 \Bq,0,-3.4510461917,1.5718435793,0.6984104146\Bq,0,-3.4702560984,1.694
 5901662,1.182728755\Bq,0,-3.4472042104,1.5472942619,0.6015467465\Bq,0,
 -3.4740980797,1.7191394836,1.2795924231\Bq,0,-3.4433622291,1.522744944
 6,0.5046830784\Bq,0,-3.4779400611,1.7436888009,1.3764560912\Bq,0,-3.43
 95202478,1.4981956272,0.4078194103\Bq,0,-3.4587301544,1.6209422141,0.8
 921377508\Bq,0,-3.4577073646,2.1301906911,0.8663512717\Bq,0,-3.4500234
 02,2.0810920564,0.6726239355\Bq,0,-3.4615493459,2.1547400085,0.9632149
 398\Bq,0,-3.4461814206,2.056542739,0.5757602674\Bq,0,-3.4653913273,2.1
 792893259,1.0600786079\Bq,0,-3.4423394393,2.0319934216,0.4788965993\Bq
 ,0,-3.4692333086,2.2038386433,1.156942276\Bq,0,-3.438497458,2.00744410
 43,0.3820329313\Bq,0,-3.4730752899,2.2283879606,1.2538059441\Bq,0,-3.4
 346554766,1.9828947869,0.2851692632\Bq,0,-3.4538653833,2.1056413738,0.
 7694876036\Bq,0,-3.4528425935,2.6148898508,0.7437011246\Bq,0,-3.445158
 6308,2.5657912161,0.5499737884\Bq,0,-3.4566845748,2.6394391682,0.84056
 47927\Bq,0,-3.4413166495,2.5412418987,0.4531101203\Bq,0,-3.4605265561,
 2.6639884856,0.9374284608\Bq,0,-3.4374746682,2.5166925813,0.3562464522
 \Bq,0,-3.4643685375,2.688537803,1.0342921288\Bq,0,-3.4336326868,2.4921
 43264,0.2593827841\Bq,0,-3.4682105188,2.7130871203,1.1311557969\Bq,0,-
 3.4297907055,2.4675939466,0.162519116\Bq,0,-3.4490006122,2.5903405335,
 0.6468374565\Bq,0,-3.4479778224,3.0995890105,0.6210509774\\Version=ES6
 4L-G09RevD.01\HF=-847.0032898\RMSD=7.521e-09\Dipole=0.0186808,0.033667
 1,0.0011595\Quadrupole=4.9072795,4.7288219,-9.6361014,-0.2850201,2.386
 7064,-0.880172\PG=C01 [X(C22H14)]\\@


          EVOLUTION
 IN THE BEGINNING GOD MADE MAN.
 HE WORKED THE DIRT WITH HIS HANDS.
 THEN GOD DECIDED TO GIVE MAN SCIENCE,
 MAN SHOULD BE USEFUL (LIKE AN APPLIANCE.)
 BUT SOON MAN'S KNOWLEDGE GREW TOO GREAT,
 TO THE HEADING SCIENCE HE COULDN'T RELATE
 SO GOD SAID "LETS HAVE DIFFERENT FIELDS,
 WE'LL DIVIDE THEM UP, SEE WHAT IT YIELDS."
 ENTER PHYSICS, CHEMISTRY, BIO
 THEY SPRANG UP AROUND THE NILE.
 BUT CHEMISTRY SURPASSED THE REST
 FAR AND AWAY IT WAS THE BEST.
 EXPERIMENT WAS GOD'S DECREE
 EXPERIMENT DID CHEMISTS WITH LOTS OF GLEE
 BUT SOON THEIR TESTS BEGAN TO BOG,
 THEY FOUND THEMSELVES DEEP IN A FOG.
 "GIVE US SOME HELP" THEY CRIED TO GOD.
 GOD LOOKED AROUND, THEN GAVE THE NOD.
 ENTER EINSTEIN, HEISENBERG, BOHR,
 REACTION PATHS WERE CLEAR ONCE MORE.
 WITH THEORISTS GOD SEND DIRECTION
 AND THEN HE STOPPED, HE'D MADE PERFECTION.
          -- THOMAS A. HOLME, 1981
 Job cpu time:       0 days  2 hours 36 minutes 54.5 seconds.
 File lengths (MBytes):  RWF=    184 Int=      0 D2E=      0 Chk=     19 Scr=      1
 Normal termination of Gaussian 09 at Fri Aug 14 17:32:41 2020.

real	19m59.313s
user	156m51.182s
sys	0m3.415s
