 Entering Gaussian System, Link 0=g09
 Initial command:
 /share/programs/GAUSSIAN/64/g09/l1.exe "/scratch/yannick.28363/Gau-110433.inp" -scrdir="/scratch/yannick.28363/"
 Entering Link 1 = /share/programs/GAUSSIAN/64/g09/l1.exe PID=    110484.
  
 Copyright (c) 1988,1990,1992,1993,1995,1998,2003,2009,2013,
            Gaussian, Inc.  All Rights Reserved.
  
 This is part of the Gaussian(R) 09 program.  It is based on
 the Gaussian(R) 03 system (copyright 2003, Gaussian, Inc.),
 the Gaussian(R) 98 system (copyright 1998, Gaussian, Inc.),
 the Gaussian(R) 94 system (copyright 1995, Gaussian, Inc.),
 the Gaussian 92(TM) system (copyright 1992, Gaussian, Inc.),
 the Gaussian 90(TM) system (copyright 1990, Gaussian, Inc.),
 the Gaussian 88(TM) system (copyright 1988, Gaussian, Inc.),
 the Gaussian 86(TM) system (copyright 1986, Carnegie Mellon
 University), and the Gaussian 82(TM) system (copyright 1983,
 Carnegie Mellon University). Gaussian is a federally registered
 trademark of Gaussian, Inc.
  
 This software contains proprietary and confidential information,
 including trade secrets, belonging to Gaussian, Inc.
  
 This software is provided under written license and may be
 used, copied, transmitted, or stored only in accord with that
 written license.
  
 The following legend is applicable only to US Government
 contracts under FAR:
  
                    RESTRICTED RIGHTS LEGEND
  
 Use, reproduction and disclosure by the US Government is
 subject to restrictions as set forth in subparagraphs (a)
 and (c) of the Commercial Computer Software - Restricted
 Rights clause in FAR 52.227-19.
  
 Gaussian, Inc.
 340 Quinnipiac St., Bldg. 40, Wallingford CT 06492
  
  
 ---------------------------------------------------------------
 Warning -- This program may not be used in any manner that
 competes with the business of Gaussian, Inc. or will provide
 assistance to any competitor of Gaussian, Inc.  The licensee
 of this program is prohibited from giving any competitor of
 Gaussian, Inc. access to this program.  By using this program,
 the user acknowledges that Gaussian, Inc. is engaged in the
 business of creating and licensing software in the field of
 computational chemistry and represents and warrants to the
 licensee that it is not a competitor of Gaussian, Inc. and that
 it will not use this program in any manner prohibited above.
 ---------------------------------------------------------------
  

 Cite this work as:
 Gaussian 09, Revision D.01,
 M. J. Frisch, G. W. Trucks, H. B. Schlegel, G. E. Scuseria, 
 M. A. Robb, J. R. Cheeseman, G. Scalmani, V. Barone, B. Mennucci, 
 G. A. Petersson, H. Nakatsuji, M. Caricato, X. Li, H. P. Hratchian, 
 A. F. Izmaylov, J. Bloino, G. Zheng, J. L. Sonnenberg, M. Hada, 
 M. Ehara, K. Toyota, R. Fukuda, J. Hasegawa, M. Ishida, T. Nakajima, 
 Y. Honda, O. Kitao, H. Nakai, T. Vreven, J. A. Montgomery, Jr., 
 J. E. Peralta, F. Ogliaro, M. Bearpark, J. J. Heyd, E. Brothers, 
 K. N. Kudin, V. N. Staroverov, T. Keith, R. Kobayashi, J. Normand, 
 K. Raghavachari, A. Rendell, J. C. Burant, S. S. Iyengar, J. Tomasi, 
 M. Cossi, N. Rega, J. M. Millam, M. Klene, J. E. Knox, J. B. Cross, 
 V. Bakken, C. Adamo, J. Jaramillo, R. Gomperts, R. E. Stratmann, 
 O. Yazyev, A. J. Austin, R. Cammi, C. Pomelli, J. W. Ochterski, 
 R. L. Martin, K. Morokuma, V. G. Zakrzewski, G. A. Voth, 
 P. Salvador, J. J. Dannenberg, S. Dapprich, A. D. Daniels, 
 O. Farkas, J. B. Foresman, J. V. Ortiz, J. Cioslowski, 
 and D. J. Fox, Gaussian, Inc., Wallingford CT, 2013.
 
 ******************************************
 Gaussian 09:  ES64L-G09RevD.01 24-Apr-2013
                14-Aug-2020 
 ******************************************
 %nproc=8
 Will use up to    8 processors via shared memory.
 %mem=1000MB
 ----------------------------------------
 # rb3lyp/6-311+g** NMR geom=connectivity
 ----------------------------------------
 1/38=1,57=2/1;
 2/12=2,17=6,18=5,40=1/2;
 3/5=4,6=6,7=111,11=2,16=1,25=1,30=1,74=-5,116=1/1,2,8,3;
 4//1;
 5/5=2,38=5/2;
 8/6=1,10=90,11=11/1;
 10/13=100,45=16/2;
 6/7=2,8=2,9=2,10=2,28=1/1;
 99/9=1/99;
 -----
 Title
 -----
 Symbolic Z-matrix:
 Charge =  0 Multiplicity = 1
 C                    -4.05006  -0.57719   0.81367 
 H                    -5.02638  -1.00827   1.00248 
 C                    -3.93816   0.66178   0.24009 
 H                    -4.82524   1.23389  -0.01113 
 C                    -2.67684   1.24332   0.00576 
 C                    -1.49741   0.50515   0.28483 
 C                    -1.65083  -0.73387   0.9404 
 H                    -0.77136  -1.2731    1.26338 
 C                    -2.88985  -1.2624    1.19943 
 H                    -2.96837  -2.21246   1.71527 
 C                    -2.57732   2.59637  -0.41929 
 H                    -3.48707   3.14122  -0.64741 
 C                    -1.37419   3.21479  -0.4364 
 H                    -1.29973   4.2742   -0.65781 
 C                    -0.17195   2.49941  -0.17346 
 C                    -0.20439   1.10184   0.01927 
 C                     1.05135   3.20426  -0.06762 
 H                     1.04273   4.28195  -0.1897 
 C                     2.19421   2.54874   0.25796 
 H                     3.11685   3.09128   0.43347 
 C                     2.22165   1.13366   0.2935 
 C                     1.04869   0.39455   0.03024 
 C                     3.44834   0.46146   0.55739 
 H                     4.30958   1.06061   0.83348 
 C                     3.54273  -0.88559   0.47495 
 H                     4.47315  -1.39397   0.70388 
 C                     2.44901  -1.64744  -0.01963 
 C                     1.21507  -1.00573  -0.30136 
 C                     0.25311  -1.74344  -1.02166 
 H                    -0.65414  -1.25351  -1.34628 
 C                     0.44942  -3.06286  -1.34138 
 H                    -0.30832  -3.59443  -1.90541 
 C                     1.62517  -3.7208   -0.95525 
 H                     1.767    -4.76874  -1.1927 
 C                     2.61099  -3.01442  -0.31831 
 H                     3.55256  -3.49028  -0.06464 
 Bq                    1.02326   1.81374   0.05998 
 Bq                   -1.62738  -0.62919   0.90626 
 Bq                   -1.59843  -0.63902   0.70861 
 Bq                   -1.64186  -0.62427   1.00508 
 Bq                   -1.58395  -0.64393   0.60978 
 Bq                   -1.65633  -0.61936   1.1039 
 Bq                   -1.56948  -0.64884   0.51096 
 Bq                   -1.67081  -0.61445   1.20273 
 Bq                   -1.555    -0.65376   0.41213 
 Bq                   -1.68529  -0.60953   1.30155 
 Bq                   -1.54053  -0.65867   0.31331 
 Bq                   -1.61291  -0.6341    0.80743 
 Bq                   -1.62382  -0.12979   0.88195 
 Bq                   -1.59487  -0.13962   0.6843 
 Bq                   -1.6383   -0.12488   0.98077 
 Bq                   -1.58039  -0.14453   0.58547 
 Bq                   -1.65277  -0.11997   1.0796 
 Bq                   -1.56592  -0.14945   0.48665 
 Bq                   -1.66725  -0.11505   1.17842 
 Bq                   -1.55144  -0.15436   0.38782 
 Bq                   -1.68173  -0.11014   1.27725 
 Bq                   -1.53697  -0.15927   0.289 
 Bq                   -1.60935  -0.13471   0.78312 
 Bq                   -1.62026   0.3696    0.85764 
 Bq                   -1.59131   0.35978   0.65999 
 Bq                   -1.63474   0.37452   0.95646 
 Bq                   -1.57683   0.35486   0.56117 
 Bq                   -1.64921   0.37943   1.05529 
 Bq                   -1.56236   0.34995   0.46234 
 Bq                   -1.66369   0.38434   1.15411 
 Bq                   -1.54788   0.34504   0.36352 
 Bq                   -1.67816   0.38926   1.25294 
 Bq                   -1.53341   0.34012   0.26469 
 Bq                   -1.60578   0.36469   0.75881 
 Bq                   -1.6167    0.869     0.83333 
 Bq                   -1.58775   0.85917   0.63568 
 Bq                   -1.63118   0.87391   0.93216 
 Bq                   -1.57327   0.85426   0.53686 
 Bq                   -1.64565   0.87883   1.03098 
 Bq                   -1.5588    0.84935   0.43803 
 Bq                   -1.66013   0.88374   1.12981 
 Bq                   -1.54432   0.84443   0.33921 
 Bq                   -1.6746    0.88865   1.22863 
 Bq                   -1.52984   0.83952   0.24038 
 Bq                   -1.60222   0.86409   0.73451 
 Bq                   -1.61314   1.3684    0.80902 
 Bq                   -1.58419   1.35857   0.61137 
 Bq                   -1.62762   1.37331   0.90785 
 Bq                   -1.56971   1.35366   0.51255 
 Bq                   -1.64209   1.37822   1.00667 
 Bq                   -1.55524   1.34874   0.41372 
 Bq                   -1.65657   1.38314   1.1055 
 Bq                   -1.54076   1.34383   0.3149 
 Bq                   -1.67104   1.38805   1.20432 
 Bq                   -1.52628   1.33892   0.21608 
 Bq                   -1.59866   1.36348   0.7102 
 Bq                   -1.60958   1.86779   0.78472 
 Bq                   -1.58063   1.85797   0.58707 
 Bq                   -1.62405   1.87271   0.88354 
 Bq                   -1.56615   1.85305   0.48824 
 Bq                   -1.63853   1.87762   0.98236 
 Bq                   -1.55168   1.84814   0.38942 
 Bq                   -1.65301   1.88253   1.08119 
 Bq                   -1.5372    1.84322   0.29059 
 Bq                   -1.66748   1.88745   1.18001 
 Bq                   -1.52272   1.83831   0.19177 
 Bq                   -1.5951    1.86288   0.68589 
 Bq                   -1.60602   2.36719   0.76041 
 Bq                   -1.57707   2.35736   0.56276 
 Bq                   -1.62049   2.3721    0.85923 
 Bq                   -1.56259   2.35245   0.46393 
 Bq                   -1.63497   2.37702   0.95806 
 Bq                   -1.54811   2.34753   0.36511 
 Bq                   -1.64945   2.38193   1.05688 
 Bq                   -1.53364   2.34262   0.26628 
 Bq                   -1.66392   2.38684   1.15571 
 Bq                   -1.51916   2.33771   0.16746 
 Bq                   -1.59154   2.36227   0.66158 
 Bq                   -1.60246   2.86658   0.7361 
 Bq                   -1.57351   2.85676   0.53845 
 Bq                   -1.61693   2.8715    0.83492 
 Bq                   -1.55903   2.85184   0.43963 
 Bq                   -1.63141   2.87641   0.93375 
 Bq                   -1.54455   2.84693   0.3408 
 Bq                   -1.64589   2.88132   1.03257 
 Bq                   -1.53008   2.84202   0.24198 
 Bq                   -1.66036   2.88624   1.1314 
 Bq                   -1.5156    2.8371    0.14315 
 Bq                   -1.58798   2.86167   0.63727 
 Bq                   -1.5989    3.36598   0.71179 
 Bq                   -1.56994   3.35615   0.51414 
 Bq                   -1.61337   3.37089   0.81062 
 Bq                   -1.55547   3.35124   0.41532 
 Bq                   -1.62785   3.37581   0.90944 
 Bq                   -1.54099   3.34633   0.31649 
 Bq                   -1.64232   3.38072   1.00827 
 Bq                   -1.52652   3.34141   0.21767 
 Bq                   -1.6568    3.38563   1.10709 
 Bq                   -1.51204   3.3365    0.11884 
 Bq                   -1.58442   3.36107   0.61297 
 Bq                   -1.59534   3.86538   0.68748 
 Bq                   -1.56638   3.85555   0.48983 
 Bq                   -1.60981   3.87029   0.78631 
 Bq                   -1.55191   3.85064   0.39101 
 Bq                   -1.62429   3.8752    0.88513 
 Bq                   -1.53743   3.84572   0.29218 
 Bq                   -1.63876   3.88012   0.98396 
 Bq                   -1.52296   3.84081   0.19336 
 Bq                   -1.65324   3.88503   1.08278 
 Bq                   -1.50848   3.8359    0.09454 
 Bq                   -1.58086   3.86046   0.58866 
 Bq                   -1.59178   4.36477   0.66318 
 Bq                   -1.56282   4.35495   0.46553 
 Bq                   -1.60625   4.36969   0.762 
 Bq                   -1.54835   4.35003   0.3667 
 Bq                   -1.62073   4.3746    0.86082 
 Bq                   -1.53387   4.34512   0.26788 
 Bq                   -1.6352    4.37951   0.95965 
 Bq                   -1.5194    4.34021   0.16905 
 Bq                   -1.64968   4.38443   1.05847 
 Bq                   -1.50492   4.33529   0.07023 
 Bq                   -1.5773    4.35986   0.56435 
 Bq                   -1.13266  -0.62919   0.97872 
 Bq                   -1.10371  -0.63902   0.78107 
 Bq                   -1.14714  -0.62427   1.07755 
 Bq                   -1.08923  -0.64393   0.68225 
 Bq                   -1.16161  -0.61936   1.17637 
 Bq                   -1.07476  -0.64884   0.58342 
 Bq                   -1.17609  -0.61445   1.2752 
 Bq                   -1.06028  -0.65376   0.4846 
 Bq                   -1.19057  -0.60953   1.37402 
 Bq                   -1.04581  -0.65867   0.38577 
 Bq                   -1.11819  -0.6341    0.8799 
 Bq                   -1.1291   -0.12979   0.95441 
 Bq                   -1.10015  -0.13962   0.75677 
 Bq                   -1.14358  -0.12488   1.05324 
 Bq                   -1.08567  -0.14453   0.65794 
 Bq                   -1.15805  -0.11997   1.15206 
 Bq                   -1.0712   -0.14945   0.55912 
 Bq                   -1.17253  -0.11505   1.25089 
 Bq                   -1.05672  -0.15436   0.46029 
 Bq                   -1.187    -0.11014   1.34971 
 Bq                   -1.04225  -0.15927   0.36147 
 Bq                   -1.11463  -0.13471   0.85559 
 Bq                   -1.12554   0.3696    0.93011 
 Bq                   -1.09659   0.35978   0.73246 
 Bq                   -1.14002   0.37452   1.02893 
 Bq                   -1.08211   0.35486   0.63363 
 Bq                   -1.15449   0.37943   1.12776 
 Bq                   -1.06764   0.34995   0.53481 
 Bq                   -1.16897   0.38434   1.22658 
 Bq                   -1.05316   0.34504   0.43598 
 Bq                   -1.18344   0.38926   1.32541 
 Bq                   -1.03868   0.34012   0.33716 
 Bq                   -1.11106   0.36469   0.83128 
 Bq                   -1.12198   0.869     0.9058 
 Bq                   -1.09303   0.85917   0.70815 
 Bq                   -1.13646   0.87391   1.00462 
 Bq                   -1.07855   0.85426   0.60932 
 Bq                   -1.15093   0.87883   1.10345 
 Bq                   -1.06408   0.84935   0.5105 
 Bq                   -1.16541   0.88374   1.20227 
 Bq                   -1.0496    0.84443   0.41168 
 Bq                   -1.17988   0.88865   1.3011 
 Bq                   -1.03512   0.83952   0.31285 
 Bq                   -1.1075    0.86409   0.80697 
 Bq                   -1.11842   1.3684    0.88149 
 Bq                   -1.08947   1.35857   0.68384 
 Bq                   -1.13289   1.37331   0.98032 
 Bq                   -1.07499   1.35366   0.58502 
 Bq                   -1.14737   1.37822   1.07914 
 Bq                   -1.06052   1.34874   0.48619 
 Bq                   -1.16185   1.38314   1.17796 
 Bq                   -1.04604   1.34383   0.38737 
 Bq                   -1.17632   1.38805   1.27679 
 Bq                   -1.03156   1.33892   0.28854 
 Bq                   -1.10394   1.36348   0.78267 
 Bq                   -1.11486   1.86779   0.85718 
 Bq                   -1.08591   1.85797   0.65953 
 Bq                   -1.12933   1.87271   0.95601 
 Bq                   -1.07143   1.85305   0.56071 
 Bq                   -1.14381   1.87762   1.05483 
 Bq                   -1.05695   1.84814   0.46188 
 Bq                   -1.15829   1.88253   1.15366 
 Bq                   -1.04248   1.84322   0.36306 
 Bq                   -1.17276   1.88745   1.25248 
 Bq                   -1.028     1.83831   0.26423 
 Bq                   -1.10038   1.86288   0.75836 
 Bq                   -1.1113    2.36719   0.83287 
 Bq                   -1.08235   2.35736   0.63523 
 Bq                   -1.12577   2.3721    0.9317 
 Bq                   -1.06787   2.35245   0.5364 
 Bq                   -1.14025   2.37702   1.03052 
 Bq                   -1.05339   2.34753   0.43758 
 Bq                   -1.15473   2.38193   1.12935 
 Bq                   -1.03892   2.34262   0.33875 
 Bq                   -1.1692    2.38684   1.22817 
 Bq                   -1.02444   2.33771   0.23993 
 Bq                   -1.09682   2.36227   0.73405 
 Bq                   -1.10774   2.86658   0.80857 
 
 Symmetry turned off:
 Cannot cope with ghost atoms or with translation vectors.
 Stoichiometry    C22H14
 Framework group  C1[X(C22H14)]
 NUMDOF-- NAT=    36 NAtoms=   236
 Deg. of freedom     0
 Full point group                 C1      NOp   1
                          Input orientation:                          
 ---------------------------------------------------------------------
 Center     Atomic      Atomic             Coordinates (Angstroms)
 Number     Number       Type             X           Y           Z
 ---------------------------------------------------------------------
      1          6           0       -4.050056   -0.577186    0.813671
      2          1           0       -5.026380   -1.008273    1.002476
      3          6           0       -3.938155    0.661780    0.240088
      4          1           0       -4.825242    1.233889   -0.011130
      5          6           0       -2.676841    1.243325    0.005758
      6          6           0       -1.497412    0.505153    0.284825
      7          6           0       -1.650833   -0.733873    0.940403
      8          1           0       -0.771365   -1.273097    1.263375
      9          6           0       -2.889855   -1.262404    1.199431
     10          1           0       -2.968371   -2.212456    1.715268
     11          6           0       -2.577319    2.596370   -0.419293
     12          1           0       -3.487073    3.141224   -0.647406
     13          6           0       -1.374190    3.214790   -0.436403
     14          1           0       -1.299732    4.274202   -0.657814
     15          6           0       -0.171949    2.499409   -0.173459
     16          6           0       -0.204392    1.101844    0.019269
     17          6           0        1.051349    3.204256   -0.067622
     18          1           0        1.042734    4.281950   -0.189700
     19          6           0        2.194209    2.548745    0.257958
     20          1           0        3.116853    3.091285    0.433473
     21          6           0        2.221647    1.133656    0.293499
     22          6           0        1.048693    0.394553    0.030241
     23          6           0        3.448336    0.461463    0.557394
     24          1           0        4.309579    1.060605    0.833485
     25          6           0        3.542735   -0.885593    0.474946
     26          1           0        4.473147   -1.393970    0.703882
     27          6           0        2.449005   -1.647445   -0.019632
     28          6           0        1.215070   -1.005726   -0.301357
     29          6           0        0.253111   -1.743444   -1.021659
     30          1           0       -0.654136   -1.253505   -1.346285
     31          6           0        0.449419   -3.062860   -1.341378
     32          1           0       -0.308316   -3.594431   -1.905406
     33          6           0        1.625173   -3.720797   -0.955254
     34          1           0        1.767005   -4.768740   -1.192702
     35          6           0        2.610987   -3.014418   -0.318305
     36          1           0        3.552561   -3.490281   -0.064637
     37          0           0        1.023260    1.813744    0.059981
     38          0           0       -1.627382   -0.629188    0.906255
     39          0           0       -1.598430   -0.639015    0.708606
     40          0           0       -1.641858   -0.624275    1.005080
     41          0           0       -1.583954   -0.643929    0.609782
     42          0           0       -1.656334   -0.619361    1.103905
     43          0           0       -1.569478   -0.648842    0.510957
     44          0           0       -1.670810   -0.614448    1.202729
     45          0           0       -1.555002   -0.653756    0.412132
     46          0           0       -1.685286   -0.609534    1.301554
     47          0           0       -1.540527   -0.658669    0.313308
     48          0           0       -1.612906   -0.634102    0.807431
     49          0           0       -1.623822   -0.129792    0.881947
     50          0           0       -1.594870   -0.139619    0.684298
     51          0           0       -1.638298   -0.124879    0.980772
     52          0           0       -1.580394   -0.144533    0.585474
     53          0           0       -1.652773   -0.119965    1.079597
     54          0           0       -1.565918   -0.149446    0.486649
     55          0           0       -1.667249   -0.115052    1.178421
     56          0           0       -1.551442   -0.154360    0.387824
     57          0           0       -1.681725   -0.110138    1.277246
     58          0           0       -1.536966   -0.159273    0.289000
     59          0           0       -1.609346   -0.134706    0.783123
     60          0           0       -1.620261    0.369604    0.857639
     61          0           0       -1.591309    0.359777    0.659990
     62          0           0       -1.634737    0.374517    0.956464
     63          0           0       -1.576833    0.354863    0.561165
     64          0           0       -1.649213    0.379431    1.055289
     65          0           0       -1.562357    0.349950    0.462341
     66          0           0       -1.663689    0.384344    1.154113
     67          0           0       -1.547881    0.345036    0.363516
     68          0           0       -1.678165    0.389258    1.252938
     69          0           0       -1.533405    0.340123    0.264692
     70          0           0       -1.605785    0.364690    0.758815
     71          0           0       -1.616700    0.869000    0.833331
     72          0           0       -1.587748    0.859173    0.635682
     73          0           0       -1.631176    0.873913    0.932156
     74          0           0       -1.573272    0.854259    0.536857
     75          0           0       -1.645652    0.878827    1.030981
     76          0           0       -1.558796    0.849346    0.438033
     77          0           0       -1.660128    0.883740    1.129805
     78          0           0       -1.544320    0.844432    0.339208
     79          0           0       -1.674604    0.888654    1.228630
     80          0           0       -1.529845    0.839519    0.240384
     81          0           0       -1.602224    0.864086    0.734507
     82          0           0       -1.613140    1.368396    0.809023
     83          0           0       -1.584188    1.358569    0.611374
     84          0           0       -1.627616    1.373309    0.907848
     85          0           0       -1.569712    1.353656    0.512549
     86          0           0       -1.642091    1.378223    1.006673
     87          0           0       -1.555236    1.348742    0.413725
     88          0           0       -1.656567    1.383136    1.105497
     89          0           0       -1.540760    1.343829    0.314900
     90          0           0       -1.671043    1.388050    1.204322
     91          0           0       -1.526284    1.338915    0.216076
     92          0           0       -1.598664    1.363482    0.710199
     93          0           0       -1.609579    1.867792    0.784715
     94          0           0       -1.580627    1.857965    0.587066
     95          0           0       -1.624055    1.872706    0.883540
     96          0           0       -1.566151    1.853052    0.488241
     97          0           0       -1.638531    1.877619    0.982364
     98          0           0       -1.551675    1.848138    0.389417
     99          0           0       -1.653007    1.882533    1.081189
    100          0           0       -1.537199    1.843225    0.290592
    101          0           0       -1.667483    1.887446    1.180014
    102          0           0       -1.522723    1.838311    0.191768
    103          0           0       -1.595103    1.862879    0.685891
    104          0           0       -1.606018    2.367188    0.760407
    105          0           0       -1.577066    2.357361    0.562758
    106          0           0       -1.620494    2.372102    0.859232
    107          0           0       -1.562590    2.352448    0.463933
    108          0           0       -1.634970    2.377015    0.958056
    109          0           0       -1.548114    2.347534    0.365109
    110          0           0       -1.649446    2.381929    1.056881
    111          0           0       -1.533638    2.342621    0.266284
    112          0           0       -1.663922    2.386842    1.155706
    113          0           0       -1.519163    2.337707    0.167460
    114          0           0       -1.591542    2.362275    0.661583
    115          0           0       -1.602458    2.866584    0.736099
    116          0           0       -1.573506    2.856757    0.538450
    117          0           0       -1.616934    2.871498    0.834924
    118          0           0       -1.559030    2.851844    0.439625
    119          0           0       -1.631409    2.876411    0.933748
    120          0           0       -1.544554    2.846930    0.340801
    121          0           0       -1.645885    2.881325    1.032573
    122          0           0       -1.530078    2.842017    0.241976
    123          0           0       -1.660361    2.886238    1.131398
    124          0           0       -1.515602    2.837103    0.143152
    125          0           0       -1.587982    2.861671    0.637275
    126          0           0       -1.598897    3.365980    0.711791
    127          0           0       -1.569945    3.356153    0.514142
    128          0           0       -1.613373    3.370894    0.810616
    129          0           0       -1.555469    3.351240    0.415317
    130          0           0       -1.627849    3.375807    0.909440
    131          0           0       -1.540993    3.346326    0.316493
    132          0           0       -1.642325    3.380721    1.008265
    133          0           0       -1.526517    3.341413    0.217668
    134          0           0       -1.656801    3.385634    1.107090
    135          0           0       -1.512041    3.336499    0.118843
    136          0           0       -1.584421    3.361067    0.612967
    137          0           0       -1.595336    3.865376    0.687483
    138          0           0       -1.566384    3.855549    0.489834
    139          0           0       -1.609812    3.870290    0.786308
    140          0           0       -1.551908    3.850636    0.391009
    141          0           0       -1.624288    3.875203    0.885132
    142          0           0       -1.537432    3.845722    0.292185
    143          0           0       -1.638764    3.880117    0.983957
    144          0           0       -1.522956    3.840809    0.193360
    145          0           0       -1.653240    3.885030    1.082782
    146          0           0       -1.508480    3.835895    0.094535
    147          0           0       -1.580860    3.860463    0.588659
    148          0           0       -1.591776    4.364772    0.663175
    149          0           0       -1.562824    4.354945    0.465526
    150          0           0       -1.606252    4.369686    0.762000
    151          0           0       -1.548348    4.350032    0.366701
    152          0           0       -1.620727    4.374599    0.860824
    153          0           0       -1.533872    4.345118    0.267877
    154          0           0       -1.635203    4.379513    0.959649
    155          0           0       -1.519396    4.340205    0.169052
    156          0           0       -1.649679    4.384426    1.058474
    157          0           0       -1.504920    4.335292    0.070227
    158          0           0       -1.577300    4.359859    0.564351
    159          0           0       -1.132662   -0.629188    0.978723
    160          0           0       -1.103710   -0.639015    0.781073
    161          0           0       -1.147138   -0.624275    1.077547
    162          0           0       -1.089234   -0.643929    0.682249
    163          0           0       -1.161614   -0.619361    1.176372
    164          0           0       -1.074758   -0.648842    0.583424
    165          0           0       -1.176089   -0.614448    1.275197
    166          0           0       -1.060282   -0.653756    0.484600
    167          0           0       -1.190565   -0.609534    1.374021
    168          0           0       -1.045806   -0.658669    0.385775
    169          0           0       -1.118186   -0.634102    0.879898
    170          0           0       -1.129101   -0.129792    0.954415
    171          0           0       -1.100149   -0.139619    0.756765
    172          0           0       -1.143577   -0.124879    1.053239
    173          0           0       -1.085673   -0.144533    0.657941
    174          0           0       -1.158053   -0.119965    1.152064
    175          0           0       -1.071197   -0.149446    0.559116
    176          0           0       -1.172529   -0.115052    1.250888
    177          0           0       -1.056721   -0.154360    0.460292
    178          0           0       -1.187005   -0.110138    1.349713
    179          0           0       -1.042245   -0.159273    0.361467
    180          0           0       -1.114625   -0.134706    0.855590
    181          0           0       -1.125540    0.369604    0.930107
    182          0           0       -1.096588    0.359777    0.732457
    183          0           0       -1.140016    0.374517    1.028931
    184          0           0       -1.082112    0.354863    0.633633
    185          0           0       -1.154492    0.379431    1.127756
    186          0           0       -1.067636    0.349950    0.534808
    187          0           0       -1.168968    0.384344    1.226580
    188          0           0       -1.053161    0.345036    0.435984
    189          0           0       -1.183444    0.389258    1.325405
    190          0           0       -1.038685    0.340123    0.337159
    191          0           0       -1.111064    0.364690    0.831282
    192          0           0       -1.121980    0.869000    0.905799
    193          0           0       -1.093028    0.859173    0.708149
    194          0           0       -1.136456    0.873913    1.004623
    195          0           0       -1.078552    0.854259    0.609325
    196          0           0       -1.150932    0.878827    1.103448
    197          0           0       -1.064076    0.849346    0.510500
    198          0           0       -1.165407    0.883740    1.202272
    199          0           0       -1.049600    0.844432    0.411676
    200          0           0       -1.179883    0.888654    1.301097
    201          0           0       -1.035124    0.839519    0.312851
    202          0           0       -1.107504    0.864086    0.806974
    203          0           0       -1.118419    1.368396    0.881491
    204          0           0       -1.089467    1.358569    0.683841
    205          0           0       -1.132895    1.373309    0.980315
    206          0           0       -1.074991    1.353656    0.585017
    207          0           0       -1.147371    1.378223    1.079140
    208          0           0       -1.060515    1.348742    0.486192
    209          0           0       -1.161847    1.383136    1.177964
    210          0           0       -1.046039    1.343829    0.387367
    211          0           0       -1.176323    1.388050    1.276789
    212          0           0       -1.031563    1.338915    0.288543
    213          0           0       -1.103943    1.363482    0.782666
    214          0           0       -1.114858    1.867792    0.857183
    215          0           0       -1.085906    1.857965    0.659533
    216          0           0       -1.129334    1.872706    0.956007
    217          0           0       -1.071430    1.853052    0.560709
    218          0           0       -1.143810    1.877619    1.054832
    219          0           0       -1.056954    1.848138    0.461884
    220          0           0       -1.158286    1.882533    1.153656
    221          0           0       -1.042479    1.843225    0.363059
    222          0           0       -1.172762    1.887446    1.252481
    223          0           0       -1.028003    1.838311    0.264235
    224          0           0       -1.100382    1.862879    0.758358
    225          0           0       -1.111298    2.367188    0.832875
    226          0           0       -1.082346    2.357361    0.635225
    227          0           0       -1.125774    2.372102    0.931699
    228          0           0       -1.067870    2.352448    0.536401
    229          0           0       -1.140250    2.377015    1.030524
    230          0           0       -1.053394    2.347534    0.437576
    231          0           0       -1.154725    2.381929    1.129348
    232          0           0       -1.038918    2.342621    0.338751
    233          0           0       -1.169201    2.386842    1.228173
    234          0           0       -1.024442    2.337707    0.239927
    235          0           0       -1.096822    2.362275    0.734050
    236          0           0       -1.107737    2.866584    0.808567
 ---------------------------------------------------------------------
 Rotational constants (GHZ):      0.4529074      0.2836956      0.1879557
 Standard basis: 6-311+G(d,p) (5D, 7F)
 Warning:  center  37 has no basis functions!
 Warning:  center  38 has no basis functions!
 Warning:  center  39 has no basis functions!
 Warning:  center  40 has no basis functions!
 Warning:  center  41 has no basis functions!
 Warning:  center  42 has no basis functions!
 Warning:  center  43 has no basis functions!
 Warning:  center  44 has no basis functions!
 Warning:  center  45 has no basis functions!
 Warning:  center  46 has no basis functions!
 Warning:  center  47 has no basis functions!
 Warning:  center  48 has no basis functions!
 Warning:  center  49 has no basis functions!
 Warning:  center  50 has no basis functions!
 Warning:  center  51 has no basis functions!
 Warning:  center  52 has no basis functions!
 Warning:  center  53 has no basis functions!
 Warning:  center  54 has no basis functions!
 Warning:  center  55 has no basis functions!
 Warning:  center  56 has no basis functions!
 Warning:  center  57 has no basis functions!
 Warning:  center  58 has no basis functions!
 Warning:  center  59 has no basis functions!
 Warning:  center  60 has no basis functions!
 Warning:  center  61 has no basis functions!
 Warning:  center  62 has no basis functions!
 Warning:  center  63 has no basis functions!
 Warning:  center  64 has no basis functions!
 Warning:  center  65 has no basis functions!
 Warning:  center  66 has no basis functions!
 Warning:  center  67 has no basis functions!
 Warning:  center  68 has no basis functions!
 Warning:  center  69 has no basis functions!
 Warning:  center  70 has no basis functions!
 Warning:  center  71 has no basis functions!
 Warning:  center  72 has no basis functions!
 Warning:  center  73 has no basis functions!
 Warning:  center  74 has no basis functions!
 Warning:  center  75 has no basis functions!
 Warning:  center  76 has no basis functions!
 Warning:  center  77 has no basis functions!
 Warning:  center  78 has no basis functions!
 Warning:  center  79 has no basis functions!
 Warning:  center  80 has no basis functions!
 Warning:  center  81 has no basis functions!
 Warning:  center  82 has no basis functions!
 Warning:  center  83 has no basis functions!
 Warning:  center  84 has no basis functions!
 Warning:  center  85 has no basis functions!
 Warning:  center  86 has no basis functions!
 Warning:  center  87 has no basis functions!
 Warning:  center  88 has no basis functions!
 Warning:  center  89 has no basis functions!
 Warning:  center  90 has no basis functions!
 Warning:  center  91 has no basis functions!
 Warning:  center  92 has no basis functions!
 Warning:  center  93 has no basis functions!
 Warning:  center  94 has no basis functions!
 Warning:  center  95 has no basis functions!
 Warning:  center  96 has no basis functions!
 Warning:  center  97 has no basis functions!
 Warning:  center  98 has no basis functions!
 Warning:  center  99 has no basis functions!
 Warning:  center 100 has no basis functions!
 Warning:  center 101 has no basis functions!
 Warning:  center 102 has no basis functions!
 Warning:  center 103 has no basis functions!
 Warning:  center 104 has no basis functions!
 Warning:  center 105 has no basis functions!
 Warning:  center 106 has no basis functions!
 Warning:  center 107 has no basis functions!
 Warning:  center 108 has no basis functions!
 Warning:  center 109 has no basis functions!
 Warning:  center 110 has no basis functions!
 Warning:  center 111 has no basis functions!
 Warning:  center 112 has no basis functions!
 Warning:  center 113 has no basis functions!
 Warning:  center 114 has no basis functions!
 Warning:  center 115 has no basis functions!
 Warning:  center 116 has no basis functions!
 Warning:  center 117 has no basis functions!
 Warning:  center 118 has no basis functions!
 Warning:  center 119 has no basis functions!
 Warning:  center 120 has no basis functions!
 Warning:  center 121 has no basis functions!
 Warning:  center 122 has no basis functions!
 Warning:  center 123 has no basis functions!
 Warning:  center 124 has no basis functions!
 Warning:  center 125 has no basis functions!
 Warning:  center 126 has no basis functions!
 Warning:  center 127 has no basis functions!
 Warning:  center 128 has no basis functions!
 Warning:  center 129 has no basis functions!
 Warning:  center 130 has no basis functions!
 Warning:  center 131 has no basis functions!
 Warning:  center 132 has no basis functions!
 Warning:  center 133 has no basis functions!
 Warning:  center 134 has no basis functions!
 Warning:  center 135 has no basis functions!
 Warning:  center 136 has no basis functions!
 Warning:  center 137 has no basis functions!
 Warning:  center 138 has no basis functions!
 Warning:  center 139 has no basis functions!
 Warning:  center 140 has no basis functions!
 Warning:  center 141 has no basis functions!
 Warning:  center 142 has no basis functions!
 Warning:  center 143 has no basis functions!
 Warning:  center 144 has no basis functions!
 Warning:  center 145 has no basis functions!
 Warning:  center 146 has no basis functions!
 Warning:  center 147 has no basis functions!
 Warning:  center 148 has no basis functions!
 Warning:  center 149 has no basis functions!
 Warning:  center 150 has no basis functions!
 Warning:  center 151 has no basis functions!
 Warning:  center 152 has no basis functions!
 Warning:  center 153 has no basis functions!
 Warning:  center 154 has no basis functions!
 Warning:  center 155 has no basis functions!
 Warning:  center 156 has no basis functions!
 Warning:  center 157 has no basis functions!
 Warning:  center 158 has no basis functions!
 Warning:  center 159 has no basis functions!
 Warning:  center 160 has no basis functions!
 Warning:  center 161 has no basis functions!
 Warning:  center 162 has no basis functions!
 Warning:  center 163 has no basis functions!
 Warning:  center 164 has no basis functions!
 Warning:  center 165 has no basis functions!
 Warning:  center 166 has no basis functions!
 Warning:  center 167 has no basis functions!
 Warning:  center 168 has no basis functions!
 Warning:  center 169 has no basis functions!
 Warning:  center 170 has no basis functions!
 Warning:  center 171 has no basis functions!
 Warning:  center 172 has no basis functions!
 Warning:  center 173 has no basis functions!
 Warning:  center 174 has no basis functions!
 Warning:  center 175 has no basis functions!
 Warning:  center 176 has no basis functions!
 Warning:  center 177 has no basis functions!
 Warning:  center 178 has no basis functions!
 Warning:  center 179 has no basis functions!
 Warning:  center 180 has no basis functions!
 Warning:  center 181 has no basis functions!
 Warning:  center 182 has no basis functions!
 Warning:  center 183 has no basis functions!
 Warning:  center 184 has no basis functions!
 Warning:  center 185 has no basis functions!
 Warning:  center 186 has no basis functions!
 Warning:  center 187 has no basis functions!
 Warning:  center 188 has no basis functions!
 Warning:  center 189 has no basis functions!
 Warning:  center 190 has no basis functions!
 Warning:  center 191 has no basis functions!
 Warning:  center 192 has no basis functions!
 Warning:  center 193 has no basis functions!
 Warning:  center 194 has no basis functions!
 Warning:  center 195 has no basis functions!
 Warning:  center 196 has no basis functions!
 Warning:  center 197 has no basis functions!
 Warning:  center 198 has no basis functions!
 Warning:  center 199 has no basis functions!
 Warning:  center 200 has no basis functions!
 Warning:  center 201 has no basis functions!
 Warning:  center 202 has no basis functions!
 Warning:  center 203 has no basis functions!
 Warning:  center 204 has no basis functions!
 Warning:  center 205 has no basis functions!
 Warning:  center 206 has no basis functions!
 Warning:  center 207 has no basis functions!
 Warning:  center 208 has no basis functions!
 Warning:  center 209 has no basis functions!
 Warning:  center 210 has no basis functions!
 Warning:  center 211 has no basis functions!
 Warning:  center 212 has no basis functions!
 Warning:  center 213 has no basis functions!
 Warning:  center 214 has no basis functions!
 Warning:  center 215 has no basis functions!
 Warning:  center 216 has no basis functions!
 Warning:  center 217 has no basis functions!
 Warning:  center 218 has no basis functions!
 Warning:  center 219 has no basis functions!
 Warning:  center 220 has no basis functions!
 Warning:  center 221 has no basis functions!
 Warning:  center 222 has no basis functions!
 Warning:  center 223 has no basis functions!
 Warning:  center 224 has no basis functions!
 Warning:  center 225 has no basis functions!
 Warning:  center 226 has no basis functions!
 Warning:  center 227 has no basis functions!
 Warning:  center 228 has no basis functions!
 Warning:  center 229 has no basis functions!
 Warning:  center 230 has no basis functions!
 Warning:  center 231 has no basis functions!
 Warning:  center 232 has no basis functions!
 Warning:  center 233 has no basis functions!
 Warning:  center 234 has no basis functions!
 Warning:  center 235 has no basis functions!
 Warning:  center 236 has no basis functions!
   568 basis functions,   904 primitive gaussians,   590 cartesian basis functions
    73 alpha electrons       73 beta electrons
       nuclear repulsion energy      1610.9176155625 Hartrees.
 NAtoms=  236 NActive=  236 NUniq=  236 SFac= 1.00D+00 NAtFMM=   60 NAOKFM=T Big=T
 Integral buffers will be    131072 words long.
 Raffenetti 2 integral format.
 Two-electron integral symmetry is turned off.
 One-electron integrals computed using PRISM.
 NBasis=   568 RedAO= T EigKep=  1.78D-06  NBF=   568
 NBsUse=   556 1.00D-06 EigRej=  9.09D-07 NBFU=   556
 ExpMin= 4.38D-02 ExpMax= 4.56D+03 ExpMxC= 6.82D+02 IAcc=2 IRadAn=         4 AccDes= 0.00D+00
 Harris functional with IExCor=  402 and IRadAn=       4 diagonalized for initial guess.
 HarFok:  IExCor=  402 AccDes= 0.00D+00 IRadAn=         4 IDoV= 1 UseB2=F ITyADJ=14
 ICtDFT=  3500011 ScaDFX=  1.000000  1.000000  1.000000  1.000000
 FoFCou: FMM=F IPFlag=           0 FMFlag=      100000 FMFlg1=        2001
         NFxFlg=           0 DoJE=T BraDBF=F KetDBF=T FulRan=T
         wScrn=  0.000000 ICntrl=     500 IOpCl=  0 I1Cent=   200000004 NGrid=           0
         NMat0=    1 NMatS0=      1 NMatT0=    0 NMatD0=    1 NMtDS0=    0 NMtDT0=    0
 Symmetry not used in FoFCou.
 Requested convergence on RMS density matrix=1.00D-08 within 128 cycles.
 Requested convergence on MAX density matrix=1.00D-06.
 Requested convergence on             energy=1.00D-06.
 No special actions if energy rises.
 SCF Done:  E(RB3LYP) =  -847.003289847     A.U. after   15 cycles
            NFock= 15  Conv=0.76D-08     -V/T= 2.0040
 DoSCS=F DFT=T ScalE2(SS,OS)=  1.000000  1.000000
 Range of M.O.s used for correlation:     1   556
 NBasis=   568 NAE=    73 NBE=    73 NFC=     0 NFV=     0
 NROrb=    556 NOA=    73 NOB=    73 NVA=   483 NVB=   483

 **** Warning!!: The largest alpha MO coefficient is  0.10971035D+03

          Differentiating once with respect to magnetic field using GIAOs.
          Electric field/nuclear overlap derivatives assumed to be zero.
 FoFCou: FMM=F IPFlag=           0 FMFlag=      100000 FMFlg1=        2001
         NFxFlg=           0 DoJE=F BraDBF=F KetDBF=T FulRan=T
         wScrn=  0.000000 ICntrl=    6100 IOpCl=  0 I1Cent=           7 NGrid=         236
         NMat0=    1 NMatS0=      1 NMatT0=    0 NMatD0=    1 NMtDS0=    0 NMtDT0=    0
 Symmetry not used in FoFCou.
 FoFJK:  IHMeth= 1 ICntrl=    6127 DoSepK=F KAlg= 0 I1Cent=   0 FoldK=F
 IRaf=         1 NMat=   1 IRICut=       1 DoRegI=T DoRafI=F ISym2E= 0.
          There are     3 degrees of freedom in the 1st order CPHF.  IDoFFX=0 NUNeed=     3.
      3 vectors produced by pass  0 Test12= 1.18D-12 3.33D-08 XBig12= 2.07D+03 9.18D+00.
 AX will form     3 AO Fock derivatives at one time.
      3 vectors produced by pass  1 Test12= 1.18D-12 3.33D-08 XBig12= 3.56D+00 8.03D-01.
      3 vectors produced by pass  2 Test12= 1.18D-12 3.33D-08 XBig12= 2.10D-02 6.92D-02.
      3 vectors produced by pass  3 Test12= 1.18D-12 3.33D-08 XBig12= 5.45D-05 1.89D-03.
      3 vectors produced by pass  4 Test12= 1.18D-12 3.33D-08 XBig12= 1.20D-07 7.79D-05.
      3 vectors produced by pass  5 Test12= 1.18D-12 3.33D-08 XBig12= 4.02D-10 4.73D-06.
      3 vectors produced by pass  6 Test12= 1.18D-12 3.33D-08 XBig12= 1.32D-12 2.61D-07.
 InvSVY:  IOpt=1 It=  1 EMax= 1.07D-14
 Solved reduced A of dimension    21 with     3 vectors.
 Calculating GIAO nuclear magnetic shielding tensors.
 SCF GIAO Magnetic shielding tensor (ppm):
      1  C    Isotropic =    53.8139   Anisotropy =   178.0260
   XX=   -41.4327   YX=   -32.3458   ZX=    10.0287
   XY=   -28.3572   YY=    59.0527   ZY=    55.1899
   XZ=    13.1759   YZ=    58.7550   ZZ=   143.8218
   Eigenvalues:   -53.8775    42.8214   172.4979
      2  H    Isotropic =    24.3095   Anisotropy =     4.8536
   XX=    25.5771   YX=    -1.0289   ZX=     0.5661
   XY=    -0.7431   YY=    26.1829   ZY=    -2.3306
   XZ=    -0.1707   YZ=    -2.4411   ZZ=    21.1687
   Eigenvalues:    20.2108    25.1725    27.5453
      3  C    Isotropic =    51.4055   Anisotropy =   157.8639
   XX=   -31.5399   YX=    38.5015   ZX=   -17.9316
   XY=    34.3519   YY=    49.9437   ZY=    49.6392
   XZ=    -9.8383   YZ=    44.6006   ZZ=   135.8127
   Eigenvalues:   -50.5747    48.1432   156.6481
      4  H    Isotropic =    23.8290   Anisotropy =     7.1838
   XX=    25.3635   YX=     1.8486   ZX=    -0.3559
   XY=     1.9656   YY=    26.4581   ZY=    -2.4103
   XZ=    -1.2941   YZ=    -2.6614   ZZ=    19.6654
   Eigenvalues:    18.8176    24.0511    28.6182
      5  C    Isotropic =    46.0697   Anisotropy =   207.6751
   XX=   -19.2123   YX=    -4.8852   ZX=    -1.6475
   XY=     2.8938   YY=    -2.9860   ZY=    66.5656
   XZ=     2.5356   YZ=    67.9144   ZZ=   160.4073
   Eigenvalues:   -27.2455   -19.0652   184.5197
      6  C    Isotropic =    47.5218   Anisotropy =   196.9389
   XX=   -28.1552   YX=    -2.7889   ZX=    12.0660
   XY=   -14.3886   YY=    21.2063   ZY=    74.2521
   XZ=   -18.6356   YZ=    61.1113   ZZ=   149.5144
   Eigenvalues:   -30.2925    -5.9564   178.8144
      7  C    Isotropic =    49.3915   Anisotropy =   179.8333
   XX=   -12.5211   YX=    28.7048   ZX=   -24.6745
   XY=    31.5123   YY=    29.7000   ZY=    77.7459
   XZ=   -40.0095   YZ=    65.3072   ZZ=   130.9956
   Eigenvalues:   -52.1299    31.0240   169.2804
      8  H    Isotropic =    23.1586   Anisotropy =    13.5525
   XX=    28.5711   YX=     1.5482   ZX=    -3.6986
   XY=     3.2466   YY=    22.7592   ZY=    -2.1157
   XZ=    -8.3753   YZ=    -1.0821   ZZ=    18.1456
   Eigenvalues:    15.3521    21.9301    32.1936
      9  C    Isotropic =    55.1460   Anisotropy =   174.7426
   XX=    46.7071   YX=    -2.6162   ZX=    -2.8420
   XY=     0.6223   YY=    -1.6258   ZY=    92.8272
   XZ=     0.5159   YZ=    95.6598   ZZ=   120.3568
   Eigenvalues:   -52.8932    46.6901   171.6411
     10  H    Isotropic =    24.6278   Anisotropy =     7.1815
   XX=    29.1040   YX=     0.1399   ZX=    -0.3694
   XY=     0.3642   YY=    23.4778   ZY=    -1.0805
   XZ=    -2.4493   YZ=    -2.9465   ZZ=    21.3016
   Eigenvalues:    19.9703    24.4977    29.4155
     11  C    Isotropic =    51.5607   Anisotropy =   151.2142
   XX=     2.1639   YX=    40.9287   ZX=   -26.0048
   XY=    49.9131   YY=    12.2331   ZY=    42.1342
   XZ=   -15.6145   YZ=    38.6614   ZZ=   140.2851
   Eigenvalues:   -48.1951    50.5071   152.3701
     12  H    Isotropic =    23.8537   Anisotropy =     7.3815
   XX=    25.9672   YX=     2.3738   ZX=    -0.2390
   XY=     2.4320   YY=    26.3975   ZY=    -1.8291
   XZ=     0.3529   YZ=    -1.7731   ZZ=    19.1964
   Eigenvalues:    18.7149    24.0714    28.7747
     13  C    Isotropic =    52.8653   Anisotropy =   147.4265
   XX=    51.2944   YX=    19.9221   ZX=   -13.4678
   XY=    11.5478   YY=   -34.0176   ZY=    42.5079
   XZ=    -9.2241   YZ=    40.0716   ZZ=   141.3192
   Eigenvalues:   -46.5152    53.9616   151.1497
     14  H    Isotropic =    24.0156   Anisotropy =     7.3485
   XX=    28.6644   YX=     0.6281   ZX=     1.0808
   XY=     0.5926   YY=    24.4325   ZY=    -1.0823
   XZ=     1.6846   YZ=    -0.3842   ZZ=    18.9500
   Eigenvalues:    18.6430    24.4892    28.9146
     15  C    Isotropic =    46.2221   Anisotropy =   203.9048
   XX=   -27.2215   YX=    -0.0442   ZX=   -28.9124
   XY=     4.6427   YY=   -10.5571   ZY=    28.3830
   XZ=   -10.2704   YZ=    26.7376   ZZ=   176.4448
   Eigenvalues:   -30.5512   -12.9411   182.1586
     16  C    Isotropic =    51.9375   Anisotropy =   188.2004
   XX=   -19.4441   YX=     5.5046   ZX=    15.7858
   XY=    -8.3874   YY=     2.4863   ZY=    22.9264
   XZ=   -50.6243   YZ=    23.3340   ZZ=   172.7704
   Eigenvalues:   -21.0294    -0.5625   177.4045
     17  C    Isotropic =    51.9482   Anisotropy =   149.1264
   XX=    50.7296   YX=   -23.9353   ZX=   -18.4207
   XY=   -16.7271   YY=   -41.8764   ZY=    17.8662
   XZ=   -14.3278   YZ=    11.4871   ZZ=   146.9915
   Eigenvalues:   -46.7796    51.2584   151.3658
     18  H    Isotropic =    24.0122   Anisotropy =     7.5163
   XX=    28.5811   YX=    -0.0866   ZX=     1.5071
   XY=    -0.2466   YY=    24.3342   ZY=    -0.7657
   XZ=     2.5088   YZ=    -1.5208   ZZ=    19.1214
   Eigenvalues:    18.5094    24.5041    29.0231
     19  C    Isotropic =    51.7356   Anisotropy =   148.5924
   XX=     2.4559   YX=   -45.6913   ZX=   -31.2531
   XY=   -53.4448   YY=     7.4698   ZY=    -1.8888
   XZ=   -23.5601   YZ=    -1.2765   ZZ=   145.2810
   Eigenvalues:   -46.9894    51.3989   150.7972
     20  H    Isotropic =    23.9071   Anisotropy =     7.6651
   XX=    25.5796   YX=    -2.0226   ZX=     1.4905
   XY=    -1.9998   YY=    27.3706   ZY=    -0.5164
   XZ=     2.7276   YZ=    -1.1179   ZZ=    18.7711
   Eigenvalues:    18.1643    24.5398    29.0172
     21  C    Isotropic =    45.9767   Anisotropy =   203.9316
   XX=   -16.2108   YX=    13.1802   ZX=   -44.5913
   XY=     6.5714   YY=   -20.6329   ZY=     0.0949
   XZ=   -28.8984   YZ=   -13.0883   ZZ=   174.7736
   Eigenvalues:   -30.5796   -13.4215   181.9311
     22  C    Isotropic =    52.0450   Anisotropy =   188.1157
   XX=    -0.0787   YX=     2.5023   ZX=   -16.3451
   XY=    18.9327   YY=   -14.4798   ZY=   -34.4335
   XZ=   -50.6032   YZ=    19.9104   ZZ=   170.6934
   Eigenvalues:   -20.7705    -0.5500   177.4554
     23  C    Isotropic =    53.2392   Anisotropy =   146.7412
   XX=   -22.0674   YX=   -32.0012   ZX=   -49.4857
   XY=   -23.2043   YY=    44.3661   ZY=   -15.6400
   XZ=   -43.8090   YZ=   -20.2525   ZZ=   137.4189
   Eigenvalues:   -45.6776    54.3286   151.0667
     24  H    Isotropic =    23.8249   Anisotropy =     7.5289
   XX=    25.1073   YX=    -1.7330   ZX=     1.5380
   XY=    -1.5944   YY=    28.0047   ZY=     0.0879
   XZ=     1.2557   YZ=    -0.8283   ZZ=    18.3628
   Eigenvalues:    18.0848    24.5458    28.8442
     25  C    Isotropic =    51.4969   Anisotropy =   150.1066
   XX=   -28.4915   YX=    33.9684   ZX=   -52.3137
   XY=    22.0311   YY=    46.6072   ZY=    -3.8075
   XZ=   -44.5594   YZ=   -10.6355   ZZ=   136.3748
   Eigenvalues:   -48.3857    51.3083   151.5679
     26  H    Isotropic =    23.7431   Anisotropy =     7.4052
   XX=    24.0663   YX=     1.1141   ZX=     1.9989
   XY=     0.9693   YY=    28.1000   ZY=     1.6568
   XZ=     2.0795   YZ=     0.8886   ZZ=    19.0630
   Eigenvalues:    18.2615    24.2880    28.6799
     27  C    Isotropic =    45.8108   Anisotropy =   207.2710
   XX=    -2.7702   YX=    13.7697   ZX=   -61.4651
   XY=     6.5593   YY=   -12.0335   ZY=   -41.6456
   XZ=   -62.6381   YZ=   -44.9232   ZZ=   152.2361
   Eigenvalues:   -28.0803   -18.4787   183.9915
     28  C    Isotropic =    47.8398   Anisotropy =   197.2870
   XX=    19.6900   YX=    14.4398   ZX=   -60.5682
   XY=    28.5650   YY=   -19.3566   ZY=   -56.7015
   XZ=   -63.1331   YZ=   -24.4782   ZZ=   143.1859
   Eigenvalues:   -30.5979    -5.2472   179.3644
     29  C    Isotropic =    49.3441   Anisotropy =   179.7793
   XX=    -3.4110   YX=    38.3775   ZX=   -80.8875
   XY=    36.1252   YY=    25.9805   ZY=   -23.7573
   XZ=   -78.1065   YZ=    -3.9802   ZZ=   125.4627
   Eigenvalues:   -51.6645    30.4997   169.1970
     30  H    Isotropic =    23.1387   Anisotropy =    13.3222
   XX=    22.4354   YX=    -0.7013   ZX=    -0.2375
   XY=    -2.1539   YY=    28.3546   ZY=     4.5555
   XZ=    -3.4181   YZ=     8.3231   ZZ=    18.6259
   Eigenvalues:    15.2751    22.1208    32.0201
     31  C    Isotropic =    55.4410   Anisotropy =   174.9390
   XX=    17.1871   YX=   -14.0890   ZX=   -84.0024
   XY=   -17.9030   YY=    37.4745   ZY=   -50.3662
   XZ=   -84.6557   YZ=   -54.8325   ZZ=   111.6615
   Eigenvalues:   -51.9248    46.1808   172.0670
     32  H    Isotropic =    24.5337   Anisotropy =     7.2554
   XX=    24.6185   YX=    -2.5264   ZX=     0.7632
   XY=    -2.7385   YY=    27.4630   ZY=     1.0335
   XZ=     1.1913   YZ=     3.7573   ZZ=    21.5194
   Eigenvalues:    19.8987    24.3316    29.3706
     33  C    Isotropic =    53.1814   Anisotropy =   179.0596
   XX=    60.9231   YX=    35.2256   ZX=   -42.9515
   XY=    32.0226   YY=   -38.1801   ZY=   -45.5652
   XZ=   -44.2248   YZ=   -50.7831   ZZ=   136.8014
   Eigenvalues:   -55.1197    42.1095   172.5545
     34  H    Isotropic =    24.2825   Anisotropy =     5.1861
   XX=    26.7643   YX=    -0.0934   ZX=     2.5955
   XY=    -0.2993   YY=    24.8157   ZY=     0.8589
   XZ=     2.3715   YZ=     1.4580   ZZ=    21.2676
   Eigenvalues:    20.0339    25.0737    27.7399
     35  C    Isotropic =    51.5295   Anisotropy =   155.1748
   XX=    -0.5131   YX=    52.5760   ZX=   -52.1551
   XY=    55.6135   YY=    25.1843   ZY=   -14.2643
   XZ=   -45.7255   YZ=   -17.1625   ZZ=   129.9171
   Eigenvalues:   -48.3147    47.9237   154.9793
     36  H    Isotropic =    23.8384   Anisotropy =     7.3073
   XX=    24.2302   YX=     1.4459   ZX=     2.1759
   XY=     1.2147   YY=    27.1572   ZY=     2.0665
   XZ=     1.6853   YZ=     2.7775   ZZ=    20.1277
   Eigenvalues:    18.9464    23.8588    28.7099
     37  Bq   Isotropic =     6.0363   Anisotropy =     1.3344
   XX=     6.5756   YX=     0.2469   ZX=    -0.4808
   XY=     0.1216   YY=     6.8284   ZY=     0.2567
   XZ=     0.3713   YZ=    -0.2696   ZZ=     4.7049
   Eigenvalues:     4.7033     6.4798     6.9259
     38  Bq   Isotropic =   -44.0999   Anisotropy =   122.7469
   XX=  -104.6968   YX=    28.9571   ZX=   -22.2276
   XY=    -0.8146   YY=   -42.0357   ZY=    44.7540
   XZ=    -8.4235   YZ=    40.6593   ZZ=    14.4326
   Eigenvalues:  -113.0444   -56.9867    37.7313
     39  Bq   Isotropic =   -21.9348   Anisotropy =    79.4445
   XX=   -45.5630   YX=     9.3631   ZX=   -11.7315
   XY=    -7.8708   YY=   -28.6593   ZY=    45.8597
   XZ=    -5.0984   YZ=    26.2545   ZZ=     8.4179
   Eigenvalues:   -53.9002   -42.9324    31.0282
     40  Bq   Isotropic =   -43.2250   Anisotropy =   146.6942
   XX=  -100.7975   YX=    22.7869   ZX=   -15.7825
   XY=    12.8644   YY=   -46.1442   ZY=    60.6544
   XZ=   -12.4888   YZ=    61.8189   ZZ=    17.2668
   Eigenvalues:  -116.3227   -67.9234    54.5711
     41  Bq   Isotropic =     2.8521   Anisotropy =    53.6935
   XX=    -6.5492   YX=     3.9453   ZX=    -6.0881
   XY=    -5.5515   YY=     2.2665   ZY=    39.3469
   XZ=    -3.1594   YZ=    21.1975   ZZ=    12.8390
   Eigenvalues:   -23.5112    -6.5803    38.6478
     42  Bq   Isotropic =   -33.1725   Anisotropy =   105.4872
   XX=   -70.0169   YX=    14.2143   ZX=   -10.6448
   XY=    16.2634   YY=   -45.0407   ZY=    43.8124
   XZ=   -16.8286   YZ=    39.8096   ZZ=    15.5401
   Eigenvalues:   -88.2230   -48.4468    37.1523
     43  Bq   Isotropic =    17.3754   Anisotropy =    38.2991
   XX=    15.4717   YX=     1.0981   ZX=    -3.7079
   XY=    -4.0418   YY=    19.3139   ZY=    31.0396
   XZ=    -4.4348   YZ=    16.9807   ZZ=    17.3405
   Eigenvalues:    -5.8781    15.0961    42.9081
     44  Bq   Isotropic =    -8.0468   Anisotropy =    55.2197
   XX=   -25.7775   YX=     8.9817   ZX=    -4.5945
   XY=    12.3594   YY=   -15.7564   ZY=    27.1527
   XZ=   -11.7596   YZ=    17.5478   ZZ=    17.3936
   Eigenvalues:   -39.6582   -13.2485    28.7663
     45  Bq   Isotropic =    23.2082   Anisotropy =    30.2572
   XX=    24.6841   YX=    -0.4077   ZX=    -3.0266
   XY=    -3.6189   YY=    25.3976   ZY=    24.0449
   XZ=    -7.4568   YZ=    14.6938   ZZ=    19.5429
   Eigenvalues:     2.5519    23.6932    43.3797
     46  Bq   Isotropic =    11.4355   Anisotropy =    26.5417
   XX=     4.5518   YX=     5.5200   ZX=    -0.3715
   XY=     7.8318   YY=     7.3263   ZY=    18.7542
   XZ=    -4.8307   YZ=     5.3274   ZZ=    22.4282
   Eigenvalues:    -4.7635     9.9400    29.1299
     47  Bq   Isotropic =    23.8034   Anisotropy =    27.1107
   XX=    26.4603   YX=    -1.2109   ZX=    -3.0185
   XY=    -3.9301   YY=    25.4476   ZY=    18.8268
   XZ=   -11.0184   YZ=    13.8698   ZZ=    19.5021
   Eigenvalues:     5.1609    24.3720    41.8772
     48  Bq   Isotropic =   -45.5071   Anisotropy =   108.8482
   XX=   -89.5055   YX=    18.9064   ZX=   -20.2294
   XY=    -8.7359   YY=   -56.8247   ZY=    44.2579
   XZ=    -9.1393   YZ=    28.8103   ZZ=     9.8090
   Eigenvalues:   -95.5313   -68.0482    27.0584
     49  Bq   Isotropic =    32.2165   Anisotropy =    37.1949
   XX=    37.4195   YX=     3.2920   ZX=    -0.1033
   XY=    -5.0518   YY=    11.6550   ZY=    16.2608
   XZ=   -12.7954   YZ=    19.5752   ZZ=    47.5750
   Eigenvalues:     4.1614    35.4750    57.0131
     50  Bq   Isotropic =    34.8538   Anisotropy =    39.2286
   XX=    42.4138   YX=     0.8408   ZX=    -0.7442
   XY=    -5.1036   YY=    15.6198   ZY=    24.0926
   XZ=    -8.7460   YZ=    23.7649   ZZ=    46.5278
   Eigenvalues:     2.5845    40.9707    61.0062
     51  Bq   Isotropic =    30.7757   Anisotropy =    33.5827
   XX=    34.1249   YX=     4.1198   ZX=     0.2657
   XY=    -3.1809   YY=    10.9121   ZY=    11.2248
   XZ=   -11.4790   YZ=    15.7639   ZZ=    47.2899
   Eigenvalues:     6.2746    32.8883    53.1641
     52  Bq   Isotropic =    35.1857   Anisotropy =    37.4291
   XX=    43.4089   YX=    -0.2383   ZX=    -1.0855
   XY=    -3.6485   YY=    16.5427   ZY=    24.7317
   XZ=    -4.8919   YZ=    23.8542   ZZ=    45.6056
   Eigenvalues:     2.7656    42.6532    60.1385
     53  Bq   Isotropic =    29.4217   Anisotropy =    29.5188
   XX=    30.5826   YX=     4.4849   ZX=     0.5980
   XY=    -0.6407   YY=    11.5508   ZY=     7.2079
   XZ=    -8.2772   YZ=    11.6073   ZZ=    46.1319
   Eigenvalues:     8.7905    30.3737    49.1009
     54  Bq   Isotropic =    34.4214   Anisotropy =    34.3250
   XX=    43.0488   YX=    -0.8924   ZX=    -1.4959
   XY=    -2.0407   YY=    15.9278   ZY=    22.8142
   XZ=    -1.6822   YZ=    22.8737   ZZ=    44.2877
   Eigenvalues:     3.2141    42.7454    57.3047
     55  Bq   Isotropic =    27.9494   Anisotropy =    26.2360
   XX=    26.8495   YX=     4.4274   ZX=     0.8007
   XY=     1.8956   YY=    12.8720   ZY=     4.9364
   XZ=    -4.1422   YZ=     7.8398   ZZ=    44.1267
   Eigenvalues:    10.8810    27.5271    45.4401
     56  Bq   Isotropic =    32.6423   Anisotropy =    30.3460
   XX=    41.3345   YX=    -1.0365   ZX=    -1.9197
   XY=    -0.8905   YY=    14.3591   ZY=    18.9038
   XZ=    -0.3103   YZ=    21.1484   ZZ=    42.2332
   Eigenvalues:     3.8946    41.1592    52.8730
     57  Bq   Isotropic =    26.1549   Anisotropy =    24.3043
   XX=    22.9974   YX=     4.0826   ZX=     0.8251
   XY=     3.9459   YY=    13.9245   ZY=     4.3705
   XZ=    -0.0461   YZ=     4.9078   ZZ=    41.5428
   Eigenvalues:    11.8038    24.3031    42.3577
     58  Bq   Isotropic =    30.1646   Anisotropy =    26.0418
   XX=    38.4588   YX=    -0.7630   ZX=    -2.2344
   XY=    -0.5188   YY=    12.8815   ZY=    14.0521
   XZ=    -1.2148   YZ=    19.0701   ZZ=    39.1534
   Eigenvalues:     4.8783    38.0896    47.5258
     59  Bq   Isotropic =    33.7010   Anisotropy =    39.2253
   XX=    40.2934   YX=     2.1155   ZX=    -0.4378
   XY=    -5.7168   YY=    13.5878   ZY=    20.9962
   XZ=   -11.7630   YZ=    22.3538   ZZ=    47.2218
   Eigenvalues:     2.9399    38.3119    59.8512
     60  Bq   Isotropic =    28.3253   Anisotropy =    28.6276
   XX=    24.3915   YX=    -0.9346   ZX=     9.1708
   XY=    -4.3971   YY=    26.3218   ZY=    24.1325
   XZ=    -6.4936   YZ=     9.1375   ZZ=    34.2626
   Eigenvalues:    12.4730    25.0926    47.4104
     61  Bq   Isotropic =    14.8429   Anisotropy =    52.7007
   XX=     5.4829   YX=    -3.8795   ZX=    14.6555
   XY=    -9.7990   YY=    11.9880   ZY=    38.9351
   XZ=   -12.5842   YZ=    19.5443   ZZ=    27.0578
   Eigenvalues:   -12.6990     7.2510    49.9767
     62  Bq   Isotropic =    28.1289   Anisotropy =    23.7867
   XX=    24.0195   YX=    -0.1025   ZX=     6.4446
   XY=    -1.7998   YY=    25.0185   ZY=    19.2903
   XZ=    -3.3028   YZ=     6.2458   ZZ=    35.3486
   Eigenvalues:    16.0604    24.3396    43.9867
     63  Bq   Isotropic =    -3.9831   Anisotropy =    73.9027
   XX=   -21.8013   YX=    -5.6580   ZX=    15.3767
   XY=   -11.3239   YY=   -11.4385   ZY=    46.7527
   XZ=   -15.5669   YZ=    26.3063   ZZ=    21.2906
   Eigenvalues:   -38.2032   -19.0314    45.2854
     64  Bq   Isotropic =    26.0572   Anisotropy =    22.2528
   XX=    21.0546   YX=     0.4130   ZX=     4.1726
   XY=     0.4081   YY=    21.9010   ZY=    15.8936
   XZ=    -0.3725   YZ=     4.4533   ZZ=    35.2160
   Eigenvalues:    16.3360    20.9431    40.8924
     65  Bq   Isotropic =   -29.5922   Anisotropy =    98.8573
   XX=   -60.8119   YX=    -6.0794   ZX=    12.6003
   XY=   -10.0600   YY=   -43.3848   ZY=    49.2370
   XZ=   -18.9024   YZ=    31.3073   ZZ=    15.4200
   Eigenvalues:   -68.4446   -56.6448    36.3126
     66  Bq   Isotropic =    23.2710   Anisotropy =    22.5035
   XX=    17.1673   YX=     0.7043   ZX=     2.3935
   XY=     2.1676   YY=    18.3729   ZY=    13.5737
   XZ=     2.0878   YZ=     3.3857   ZZ=    34.2726
   Eigenvalues:    14.6184    16.9212    38.2733
     67  Bq   Isotropic =   -48.7210   Anisotropy =   115.9129
   XX=   -93.7083   YX=    -3.4634   ZX=     7.8799
   XY=    -5.4117   YY=   -62.1200   ZY=    45.1341
   XZ=   -20.0542   YZ=    36.4550   ZZ=     9.6652
   Eigenvalues:   -94.3239   -80.3934    28.5542
     68  Bq   Isotropic =    20.3982   Anisotropy =    23.3266
   XX=    13.2751   YX=     0.8448   ZX=     1.0577
   XY=     3.4877   YY=    15.0715   ZY=    12.0222
   XZ=     3.9858   YZ=     2.7681   ZZ=    32.8479
   Eigenvalues:    11.4323    13.8130    35.9493
     69  Bq   Isotropic =   -50.0579   Anisotropy =   124.8944
   XX=   -99.7696   YX=    -1.2047   ZX=     5.7400
   XY=    -3.8677   YY=   -59.9891   ZY=    44.5758
   XZ=   -15.5493   YZ=    48.6878   ZZ=     9.5850
   Eigenvalues:   -99.9991   -83.3796    33.2050
     70  Bq   Isotropic =    24.7711   Anisotropy =    37.9438
   XX=    19.4906   YX=    -2.1831   ZX=    12.1199
   XY=    -7.1974   YY=    23.2679   ZY=    30.7397
   XZ=    -9.6462   YZ=    13.5254   ZZ=    31.5547
   Eigenvalues:     3.6646    20.5816    50.0670
     71  Bq   Isotropic =    27.8613   Anisotropy =    27.5281
   XX=    18.1548   YX=     4.4383   ZX=     4.4791
   XY=     5.1824   YY=    21.8828   ZY=     7.3034
   XZ=     3.1440   YZ=     5.6051   ZZ=    43.5464
   Eigenvalues:    14.8491    22.5215    46.2134
     72  Bq   Isotropic =    25.9511   Anisotropy =    34.7626
   XX=    16.8038   YX=     6.7965   ZX=     6.2483
   XY=     4.6358   YY=    14.0540   ZY=     3.6885
   XZ=    -0.9511   YZ=    11.5220   ZZ=    46.9954
   Eigenvalues:     9.0012    19.7258    49.1261
     73  Bq   Isotropic =    25.6829   Anisotropy =    26.9884
   XX=    15.7648   YX=     3.3234   ZX=     3.2421
   XY=     5.1856   YY=    20.4343   ZY=     8.8107
   XZ=     4.3325   YZ=     4.4882   ZZ=    40.8495
   Eigenvalues:    13.2457    20.1277    43.6751
     74  Bq   Isotropic =    19.5363   Anisotropy =    43.9456
   XX=    10.9526   YX=     7.4110   ZX=     6.0065
   XY=     3.7248   YY=     1.3360   ZY=     3.6940
   XZ=    -3.5558   YZ=    17.4357   ZZ=    46.3203
   Eigenvalues:    -2.9570    12.7325    48.8334
     75  Bq   Isotropic =    22.8278   Anisotropy =    27.0278
   XX=    12.7710   YX=     2.3935   ZX=     2.0896
   XY=     5.1189   YY=    17.6884   ZY=     9.7441
   XZ=     5.0242   YZ=     3.9641   ZZ=    38.0242
   Eigenvalues:    10.7395    16.8977    40.8464
     76  Bq   Isotropic =     9.4601   Anisotropy =    55.9271
   XX=     2.2268   YX=     6.8692   ZX=     4.6888
   XY=     2.0238   YY=   -16.4741   ZY=     7.3682
   XZ=    -5.7527   YZ=    24.8670   ZZ=    42.6275
   Eigenvalues:   -21.4177     3.0531    46.7448
     77  Bq   Isotropic =    19.9044   Anisotropy =    27.1324
   XX=     9.8040   YX=     1.6588   ZX=     1.1096
   XY=     5.0199   YY=    14.6389   ZY=    10.1801
   XZ=     5.3391   YZ=     3.7572   ZZ=    35.2704
   Eigenvalues:     8.0945    13.6261    37.9927
     78  Bq   Isotropic =    -1.0367   Anisotropy =    65.9331
   XX=    -5.3957   YX=     4.8191   ZX=     2.8368
   XY=    -0.3017   YY=   -33.6864   ZY=    15.4848
   XZ=    -6.5055   YZ=    30.5603   ZZ=    35.9719
   Eigenvalues:   -40.8124    -5.2165    42.9187
     79  Bq   Isotropic =    17.2164   Anisotropy =    27.0832
   XX=     7.1718   YX=     1.1017   ZX=     0.3213
   XY=     4.9040   YY=    11.7873   ZY=    10.2590
   XZ=     5.3795   YZ=     3.7066   ZZ=    32.6901
   Eigenvalues:     5.6780    10.6993    35.2719
     80  Bq   Isotropic =    -6.5719   Anisotropy =    68.8640
   XX=    -6.5008   YX=     1.8755   ZX=     1.4994
   XY=    -2.2976   YY=   -42.6359   ZY=    26.1171
   XZ=    -5.3883   YZ=    30.6494   ZZ=    29.4209
   Eigenvalues:   -52.4773    -6.5759    39.3374
     81  Bq   Isotropic =    28.3732   Anisotropy =    29.6389
   XX=    18.9179   YX=     5.6635   ZX=     5.5972
   XY=     5.0411   YY=    20.4255   ZY=     5.3765
   XZ=     1.3719   YZ=     7.7504   ZZ=    45.7762
   Eigenvalues:    14.1619    22.8252    48.1324
     82  Bq   Isotropic =    17.8799   Anisotropy =    25.1680
   XX=    10.0068   YX=     2.1523   ZX=    -1.3673
   XY=     5.2255   YY=    13.7481   ZY=     6.7637
   XZ=     0.9826   YZ=    13.0073   ZZ=    29.8849
   Eigenvalues:     6.0535    12.9278    34.6586
     83  Bq   Isotropic =    18.7470   Anisotropy =    20.7115
   XX=    13.7915   YX=     2.4168   ZX=    -1.8952
   XY=     5.2381   YY=    14.5315   ZY=     3.9634
   XZ=    -0.8153   YZ=    14.2823   ZZ=    27.9180
   Eigenvalues:     7.3775    16.3088    32.5547
     84  Bq   Isotropic =    16.8099   Anisotropy =    26.4799
   XX=     8.0922   YX=     1.8127   ZX=    -1.1809
   XY=     4.9880   YY=    12.5236   ZY=     7.8512
   XZ=     1.4938   YZ=    12.1026   ZZ=    29.8140
   Eigenvalues:     4.9605    11.0061    34.4632
     85  Bq   Isotropic =    18.3084   Anisotropy =    17.7123
   XX=    15.3708   YX=     2.2272   ZX=    -2.1398
   XY=     4.8920   YY=    13.8183   ZY=     2.6422
   XZ=    -1.9665   YZ=    14.2509   ZZ=    25.7361
   Eigenvalues:     7.3411    17.4675    30.1166
     86  Bq   Isotropic =    15.5291   Anisotropy =    27.2137
   XX=     6.3166   YX=     1.4238   ZX=    -1.0690
   XY=     4.6848   YY=    11.0324   ZY=     8.6078
   XZ=     1.7534   YZ=    11.1913   ZZ=    29.2383
   Eigenvalues:     3.7932     9.1225    33.6716
     87  Bq   Isotropic =    17.2964   Anisotropy =    14.4956
   XX=    16.5619   YX=     1.8024   ZX=    -2.2760
   XY=     4.2827   YY=    12.4471   ZY=     1.6932
   XZ=    -3.0860   YZ=    13.4645   ZZ=    22.8802
   Eigenvalues:     6.8556    18.0734    26.9601
     88  Bq   Isotropic =    14.1766   Anisotropy =    27.4489
   XX=     4.7472   YX=     1.0386   ZX=    -1.0249
   XY=     4.3654   YY=     9.4700   ZY=     9.0367
   XZ=     1.8075   YZ=    10.3353   ZZ=    28.3126
   Eigenvalues:     2.6668     7.3871    32.4759
     89  Bq   Isotropic =    15.8860   Anisotropy =    11.5722
   XX=    17.2843   YX=     1.1933   ZX=    -2.2405
   XY=     3.4523   YY=    10.7058   ZY=     1.2689
   XZ=    -3.9834   YZ=    11.7704   ZZ=    19.6680
   Eigenvalues:     6.1555    17.9018    23.6008
     90  Bq   Isotropic =    12.8527   Anisotropy =    27.2806
   XX=     3.4138   YX=     0.6923   ZX=    -1.0327
   XY=     4.0603   YY=     7.9760   ZY=     9.1846
   XZ=     1.7106   YZ=     9.5617   ZZ=    27.1684
   Eigenvalues:     1.6504     5.8680    31.0398
     91  Bq   Isotropic =    14.3466   Anisotropy =     9.9222
   XX=    17.5162   YX=     0.4949   ZX=    -2.0122
   XY=     2.4870   YY=     8.9646   ZY=     1.3562
   XZ=    -4.5081   YZ=     9.1996   ZZ=    16.5589
   Eigenvalues:     5.5762    16.5022    20.9613
     92  Bq   Isotropic =    18.5760   Anisotropy =    23.2369
   XX=    11.9532   YX=     2.3761   ZX=    -1.6173
   XY=     5.3319   YY=    14.4819   ZY=     5.4148
   XZ=     0.2018   YZ=    13.7921   ZZ=    29.2929
   Eigenvalues:     6.9146    14.7462    34.0673
     93  Bq   Isotropic =    10.7028   Anisotropy =    21.8042
   XX=     2.8630   YX=     0.5685   ZX=    -1.3703
   XY=     2.6566   YY=     8.6533   ZY=     5.7092
   XZ=    -1.3033   YZ=    11.8288   ZZ=    20.5921
   Eigenvalues:     1.3042     5.5653    25.2389
     94  Bq   Isotropic =    10.3909   Anisotropy =    17.5162
   XX=     4.0015   YX=     0.5478   ZX=    -1.4167
   XY=     2.6207   YY=     9.5184   ZY=     4.1520
   XZ=    -1.1633   YZ=    10.7245   ZZ=    17.6529
   Eigenvalues:     2.4568     6.6476    22.0684
     95  Bq   Isotropic =    10.5751   Anisotropy =    23.1735
   XX=     2.3220   YX=     0.5008   ZX=    -1.3188
   XY=     2.5784   YY=     8.0211   ZY=     6.2642
   XZ=    -1.4229   YZ=    11.9897   ZZ=    21.3824
   Eigenvalues:     0.7860     4.9153    26.0242
     96  Bq   Isotropic =     9.9349   Anisotropy =    14.7128
   XX=     4.5691   YX=     0.4473   ZX=    -1.3728
   XY=     2.4656   YY=     9.6830   ZY=     3.2247
   XZ=    -1.1685   YZ=     9.7504   ZZ=    15.5526
   Eigenvalues:     3.0621     6.9991    19.7434
     97  Bq   Isotropic =    10.2966   Anisotropy =    24.0444
   XX=     1.8157   YX=     0.3977   ZX=    -1.2688
   XY=     2.4660   YY=     7.3158   ZY=     6.6531
   XZ=    -1.5561   YZ=    11.9419   ZZ=    21.7581
   Eigenvalues:     0.3152     4.2483    26.3261
     98  Bq   Isotropic =     9.3080   Anisotropy =    11.6767
   XX=     5.1125   YX=     0.2903   ZX=    -1.2614
   XY=     2.2027   YY=     9.6521   ZY=     2.2764
   XZ=    -1.2307   YZ=     8.5292   ZZ=    13.1594
   Eigenvalues:     3.6481     7.1835    17.0925
     99  Bq   Isotropic =     9.9044   Anisotropy =    24.4732
   XX=     1.3524   YX=     0.2743   ZX=    -1.2290
   XY=     2.3380   YY=     6.5817   ZY=     6.8845
   XZ=    -1.6904   YZ=    11.7326   ZZ=    21.7790
   Eigenvalues:    -0.1060     3.5993    26.2198
    100  Bq   Isotropic =     8.5657   Anisotropy =     8.6807
   XX=     5.6117   YX=     0.0864   ZX=    -1.0758
   XY=     1.8326   YY=     9.4398   ZY=     1.3766
   XZ=    -1.3403   YZ=     7.1398   ZZ=    10.6456
   Eigenvalues:     4.1548     7.1895    14.3528
    101  Bq   Isotropic =     9.4355   Anisotropy =    24.5317
   XX=     0.9373   YX=     0.1442   ZX=    -1.2027
   XY=     2.2082   YY=     5.8559   ZY=     6.9783
   XZ=    -1.8161   YZ=    11.4065   ZZ=    21.5132
   Eigenvalues:    -0.4775     2.9940    25.7899
    102  Bq   Isotropic =     7.7846   Anisotropy =     6.0926
   XX=     6.0445   YX=    -0.1540   ZX=    -0.8226
   XY=     1.3671   YY=     9.0782   ZY=     0.5926
   XZ=    -1.4720   YZ=     5.7019   ZZ=     8.2312
   Eigenvalues:     4.4629     7.0446    11.8464
    103  Bq   Isotropic =    10.6476   Anisotropy =    19.9106
   XX=     3.4275   YX=     0.5873   ZX=    -1.4092
   XY=     2.6782   YY=     9.1660   ZY=     4.9960
   XZ=    -1.2119   YZ=    11.4165   ZZ=    19.3494
   Eigenvalues:     1.8646     6.1570    23.9214
    104  Bq   Isotropic =    10.7319   Anisotropy =    23.3435
   XX=     2.8280   YX=    -0.1397   ZX=    -0.9414
   XY=     0.9617   YY=     6.3895   ZY=     4.2056
   XZ=    -2.9900   YZ=    11.7004   ZZ=    22.9782
   Eigenvalues:     1.8131     4.0884    26.2942
    105  Bq   Isotropic =    11.7620   Anisotropy =    20.7293
   XX=     4.7897   YX=    -0.1027   ZX=    -0.8402
   XY=     0.9956   YY=     7.5003   ZY=     3.8915
   XZ=    -2.2875   YZ=     9.5323   ZZ=    22.9960
   Eigenvalues:     3.8786     5.8259    25.5816
    106  Bq   Isotropic =    10.1596   Anisotropy =    23.9504
   XX=     2.0927   YX=    -0.1683   ZX=    -0.9762
   XY=     0.9245   YY=     5.8569   ZY=     4.3697
   XZ=    -3.2662   YZ=    12.3224   ZZ=    22.5293
   Eigenvalues:     0.9971     3.3553    26.1265
    107  Bq   Isotropic =    12.1625   Anisotropy =    18.6614
   XX=     6.0315   YX=    -0.0824   ZX=    -0.7623
   XY=     0.9801   YY=     8.0316   ZY=     3.7841
   XZ=    -1.8954   YZ=     8.0297   ZZ=    22.4244
   Eigenvalues:     5.0729     6.8112    24.6035
    108  Bq   Isotropic =     9.5757   Anisotropy =    24.1733
   XX=     1.4939   YX=    -0.2068   ZX=    -1.0045
   XY=     0.8814   YY=     5.3511   ZY=     4.5127
   XZ=    -3.4805   YZ=    12.6651   ZZ=    21.8822
   Eigenvalues:     0.3201     2.7159    25.6913
    109  Bq   Isotropic =    12.4373   Anisotropy =    16.1275
   XX=     7.4237   YX=    -0.0513   ZX=    -0.6524
   XY=     0.9353   YY=     8.4859   ZY=     3.7252
   XZ=    -1.5044   YZ=     6.3677   ZZ=    21.4025
   Eigenvalues:     6.2321     7.8909    23.1890
    110  Bq   Isotropic =     8.9938   Anisotropy =    24.0836
   XX=     1.0086   YX=    -0.2539   ZX=    -1.0278
   XY=     0.8371   YY=     4.8744   ZY=     4.6231
   XZ=    -3.6320   YZ=    12.7705   ZZ=    21.0985
   Eigenvalues:    -0.2329     2.1649    25.0496
    111  Bq   Isotropic =    12.5493   Anisotropy =    13.2492
   XX=     8.9141   YX=    -0.0073   ZX=    -0.4955
   XY=     0.8551   YY=     8.7964   ZY=     3.6997
   XZ=    -1.1319   YZ=     4.7212   ZZ=    19.9373
   Eigenvalues:     7.1348     9.1309    21.3821
    112  Bq   Isotropic =     8.4242   Anisotropy =    23.7491
   XX=     0.6159   YX=    -0.3069   ZX=    -1.0471
   XY=     0.7952   YY=     4.4278   ZY=     4.6953
   XZ=    -3.7247   YZ=    12.6847   ZZ=    20.2289
   Eigenvalues:    -0.6784     1.6941    24.2569
    113  Bq   Isotropic =    12.4773   Anisotropy =    10.2359
   XX=    10.4241   YX=     0.0403   ZX=    -0.2746
   XY=     0.7328   YY=     8.8969   ZY=     3.6587
   XZ=    -0.7837   YZ=     3.3261   ZZ=    18.1110
   Eigenvalues:     7.6202    10.5105    19.3013
    114  Bq   Isotropic =    11.2743   Anisotropy =    22.2860
   XX=     3.7219   YX=    -0.1194   ZX=    -0.8975
   XY=     0.9874   YY=     6.9426   ZY=     4.0388
   XZ=    -2.6590   YZ=    10.7706   ZZ=    23.1585
   Eigenvalues:     2.7764     4.9149    26.1316
    115  Bq   Isotropic =    12.8846   Anisotropy =    26.9151
   XX=     5.6765   YX=    -1.2631   ZX=    -0.1821
   XY=    -0.5457   YY=     7.4929   ZY=     5.1616
   XZ=    -3.3017   YZ=    16.7772   ZZ=    25.4846
   Eigenvalues:     2.3007     5.5251    30.8280
    116  Bq   Isotropic =    17.0482   Anisotropy =    27.2809
   XX=    10.5218   YX=    -1.6253   ZX=     0.2806
   XY=    -1.1785   YY=    10.7314   ZY=     7.0046
   XZ=    -2.4153   YZ=    15.6254   ZZ=    29.8913
   Eigenvalues:     5.3525    10.5566    35.2355
    117  Bq   Isotropic =    11.2531   Anisotropy =    26.3364
   XX=     4.0317   YX=    -1.1232   ZX=    -0.3504
   XY=    -0.3546   YY=     6.2736   ZY=     4.6921
   XZ=    -3.6026   YZ=    16.8286   ZZ=    23.4540
   Eigenvalues:     1.0820     3.8666    28.8107
    118  Bq   Isotropic =    19.5053   Anisotropy =    27.0497
   XX=    13.8407   YX=    -1.8169   ZX=     0.5795
   XY=    -1.6563   YY=    12.5813   ZY=     8.6673
   XZ=    -1.8253   YZ=    14.4604   ZZ=    32.0939
   Eigenvalues:     6.9557    14.0218    37.5385
    119  Bq   Isotropic =     9.8936   Anisotropy =    25.5701
   XX=     2.7833   YX=    -1.0160   ZX=    -0.4842
   XY=    -0.2219   YY=     5.3066   ZY=     4.3906
   XZ=    -3.8188   YZ=    16.6178   ZZ=    21.5910
   Eigenvalues:     0.0974     2.6431    26.9404
    120  Bq   Isotropic =    22.0025   Anisotropy =    26.6924
   XX=    17.7042   YX=    -1.9726   ZX=     0.9137
   XY=    -2.2524   YY=    14.2086   ZY=    11.0694
   XZ=    -1.1515   YZ=    12.9708   ZZ=    34.0948
   Eigenvalues:     8.1870    18.0231    39.7975
    121  Bq   Isotropic =     8.7645   Anisotropy =    24.6789
   XX=     1.8423   YX=    -0.9384   ZX=    -0.5902
   XY=    -0.1314   YY=     4.5470   ZY=     4.1934
   XZ=    -3.9604   YZ=    16.2138   ZZ=    19.9042
   Eigenvalues:    -0.6694     1.7458    25.2171
    122  Bq   Isotropic =    24.1725   Anisotropy =    26.5444
   XX=    21.8612   YX=    -2.0384   ZX=     1.2537
   XY=    -2.9444   YY=    14.9805   ZY=    14.3822
   XZ=    -0.4347   YZ=    11.3617   ZZ=    35.6757
   Eigenvalues:     8.3765    22.2721    41.8688
    123  Bq   Isotropic =     7.8238   Anisotropy =    23.7147
   XX=     1.1349   YX=    -0.8852   ZX=    -0.6740
   XY=    -0.0701   YY=     3.9479   ZY=     4.0581
   XZ=    -4.0380   YZ=    15.6758   ZZ=    18.3885
   Eigenvalues:    -1.2476     1.0853    23.6336
    124  Bq   Isotropic =    25.4120   Anisotropy =    27.1797
   XX=    25.7721   YX=    -1.9414   ZX=     1.5337
   XY=    -3.6569   YY=    13.8627   ZY=    18.6348
   XZ=     0.2357   YZ=    10.0188   ZZ=    36.6011
   Eigenvalues:     6.5040    26.2002    43.5318
    125  Bq   Isotropic =    14.8177   Anisotropy =    27.2433
   XX=     7.8124   YX=    -1.4337   ZX=     0.0268
[...]
   147  Bq   0.000000
   148  Bq   0.000000
   149  Bq   0.000000
   150  Bq   0.000000
   151  Bq   0.000000
   152  Bq   0.000000
   153  Bq   0.000000
   154  Bq   0.000000
   155  Bq   0.000000
   156  Bq   0.000000
   157  Bq   0.000000
   158  Bq   0.000000
   159  Bq   0.000000
   160  Bq   0.000000
   161  Bq   0.000000
   162  Bq   0.000000
   163  Bq   0.000000
   164  Bq   0.000000
   165  Bq   0.000000
   166  Bq   0.000000
   167  Bq   0.000000
   168  Bq   0.000000
   169  Bq   0.000000
   170  Bq   0.000000
   171  Bq   0.000000
   172  Bq   0.000000
   173  Bq   0.000000
   174  Bq   0.000000
   175  Bq   0.000000
   176  Bq   0.000000
   177  Bq   0.000000
   178  Bq   0.000000
   179  Bq   0.000000
   180  Bq   0.000000
   181  Bq   0.000000
   182  Bq   0.000000
   183  Bq   0.000000
   184  Bq   0.000000
   185  Bq   0.000000
   186  Bq   0.000000
   187  Bq   0.000000
   188  Bq   0.000000
   189  Bq   0.000000
   190  Bq   0.000000
   191  Bq   0.000000
   192  Bq   0.000000
   193  Bq   0.000000
   194  Bq   0.000000
   195  Bq   0.000000
   196  Bq   0.000000
   197  Bq   0.000000
   198  Bq   0.000000
   199  Bq   0.000000
   200  Bq   0.000000
   201  Bq   0.000000
   202  Bq   0.000000
   203  Bq   0.000000
   204  Bq   0.000000
   205  Bq   0.000000
   206  Bq   0.000000
   207  Bq   0.000000
   208  Bq   0.000000
   209  Bq   0.000000
   210  Bq   0.000000
   211  Bq   0.000000
   212  Bq   0.000000
   213  Bq   0.000000
   214  Bq   0.000000
   215  Bq   0.000000
   216  Bq   0.000000
   217  Bq   0.000000
   218  Bq   0.000000
   219  Bq   0.000000
   220  Bq   0.000000
   221  Bq   0.000000
   222  Bq   0.000000
   223  Bq   0.000000
   224  Bq   0.000000
   225  Bq   0.000000
   226  Bq   0.000000
   227  Bq   0.000000
   228  Bq   0.000000
   229  Bq   0.000000
   230  Bq   0.000000
   231  Bq   0.000000
   232  Bq   0.000000
   233  Bq   0.000000
   234  Bq   0.000000
   235  Bq   0.000000
   236  Bq   0.000000
 Sum of Mulliken charges =   0.00000
 Mulliken charges with hydrogens summed into heavy atoms:
               1
     1  C   -0.255498
     3  C    0.169409
     5  C    0.448258
     6  C    0.064351
     7  C   -0.483520
     9  C   -0.139521
    11  C   -0.205988
    13  C   -0.235853
    15  C    0.653397
    16  C    0.034822
    17  C   -0.317410
    19  C   -0.316854
    21  C    0.651066
    22  C    0.037784
    23  C   -0.117289
    25  C   -0.205316
    27  C    0.448331
    28  C    0.061983
    29  C   -0.333381
    31  C   -0.139505
    33  C   -0.255977
    35  C    0.170579
    37  Bq   0.000000
    38  Bq   0.000000
    39  Bq   0.000000
    40  Bq   0.000000
    41  Bq   0.000000
    42  Bq   0.000000
    43  Bq   0.000000
    44  Bq   0.000000
    45  Bq   0.000000
    46  Bq   0.000000
    47  Bq   0.000000
    48  Bq   0.000000
    49  Bq   0.000000
    50  Bq   0.000000
    51  Bq   0.000000
    52  Bq   0.000000
    53  Bq   0.000000
    54  Bq   0.000000
    55  Bq   0.000000
    56  Bq   0.000000
    57  Bq   0.000000
    58  Bq   0.000000
    59  Bq   0.000000
    60  Bq   0.000000
    61  Bq   0.000000
    62  Bq   0.000000
    63  Bq   0.000000
    64  Bq   0.000000
    65  Bq   0.000000
    66  Bq   0.000000
    67  Bq   0.000000
    68  Bq   0.000000
    69  Bq   0.000000
    70  Bq   0.000000
    71  Bq   0.000000
    72  Bq   0.000000
    73  Bq   0.000000
    74  Bq   0.000000
    75  Bq   0.000000
    76  Bq   0.000000
    77  Bq   0.000000
    78  Bq   0.000000
    79  Bq   0.000000
    80  Bq   0.000000
    81  Bq   0.000000
    82  Bq   0.000000
    83  Bq   0.000000
    84  Bq   0.000000
    85  Bq   0.000000
    86  Bq   0.000000
    87  Bq   0.000000
    88  Bq   0.000000
    89  Bq   0.000000
    90  Bq   0.000000
    91  Bq   0.000000
    92  Bq   0.000000
    93  Bq   0.000000
    94  Bq   0.000000
    95  Bq   0.000000
    96  Bq   0.000000
    97  Bq   0.000000
    98  Bq   0.000000
    99  Bq   0.000000
   100  Bq   0.000000
   101  Bq   0.000000
   102  Bq   0.000000
   103  Bq   0.000000
   104  Bq   0.000000
   105  Bq   0.000000
   106  Bq   0.000000
   107  Bq   0.000000
   108  Bq   0.000000
   109  Bq   0.000000
   110  Bq   0.000000
   111  Bq   0.000000
   112  Bq   0.000000
   113  Bq   0.000000
   114  Bq   0.000000
   115  Bq   0.000000
   116  Bq   0.000000
   117  Bq   0.000000
   118  Bq   0.000000
   119  Bq   0.000000
   120  Bq   0.000000
   121  Bq   0.000000
   122  Bq   0.000000
   123  Bq   0.000000
   124  Bq   0.000000
   125  Bq   0.000000
   126  Bq   0.000000
   127  Bq   0.000000
   128  Bq   0.000000
   129  Bq   0.000000
   130  Bq   0.000000
   131  Bq   0.000000
   132  Bq   0.000000
   133  Bq   0.000000
   134  Bq   0.000000
   135  Bq   0.000000
   136  Bq   0.000000
   137  Bq   0.000000
   138  Bq   0.000000
   139  Bq   0.000000
   140  Bq   0.000000
   141  Bq   0.000000
   142  Bq   0.000000
   143  Bq   0.000000
   144  Bq   0.000000
   145  Bq   0.000000
   146  Bq   0.000000
   147  Bq   0.000000
   148  Bq   0.000000
   149  Bq   0.000000
   150  Bq   0.000000
   151  Bq   0.000000
   152  Bq   0.000000
   153  Bq   0.000000
   154  Bq   0.000000
   155  Bq   0.000000
   156  Bq   0.000000
   157  Bq   0.116538
   158  Bq   0.000000
   159  Bq   0.000000
   160  Bq   0.000000
   161  Bq   0.000000
   162  Bq   0.000000
   163  Bq   0.149595
   164  Bq   0.000000
   165  Bq   0.000000
   166  Bq   0.000000
   167  Bq   0.000000
   168  Bq   0.000000
   169  Bq   0.000000
   170  Bq   0.000000
   171  Bq   0.000000
   172  Bq   0.000000
   173  Bq   0.000000
   174  Bq   0.000000
   175  Bq   0.000000
   176  Bq   0.000000
   177  Bq   0.000000
   178  Bq   0.000000
   179  Bq   0.000000
   180  Bq   0.000000
   181  Bq   0.000000
   182  Bq   0.000000
   183  Bq   0.000000
   184  Bq   0.000000
   185  Bq   0.000000
   186  Bq   0.000000
   187  Bq   0.000000
   188  Bq   0.000000
   189  Bq   0.000000
   190  Bq   0.000000
   191  Bq   0.000000
   192  Bq   0.000000
   193  Bq   0.000000
   194  Bq   0.000000
   195  Bq   0.000000
   196  Bq   0.000000
   197  Bq   0.000000
   198  Bq   0.000000
   199  Bq   0.000000
   200  Bq   0.000000
   201  Bq   0.000000
   202  Bq   0.000000
   203  Bq   0.000000
   204  Bq   0.000000
   205  Bq   0.000000
   206  Bq   0.000000
   207  Bq   0.000000
   208  Bq   0.000000
   209  Bq   0.000000
   210  Bq   0.000000
   211  Bq   0.000000
   212  Bq   0.000000
   213  Bq   0.000000
   214  Bq   0.000000
   215  Bq   0.000000
   216  Bq   0.000000
   217  Bq   0.000000
   218  Bq   0.000000
   219  Bq   0.000000
   220  Bq   0.000000
   221  Bq   0.000000
   222  Bq   0.000000
   223  Bq   0.000000
   224  Bq   0.000000
   225  Bq   0.000000
   226  Bq   0.000000
   227  Bq   0.000000
   228  Bq   0.000000
   229  Bq   0.000000
   230  Bq   0.000000
   231  Bq   0.000000
   232  Bq   0.000000
   233  Bq   0.000000
   234  Bq   0.000000
   235  Bq   0.000000
   236  Bq   0.000000
 Electronic spatial extent (au):  <R**2>=           5736.9264
 Charge=              0.0000 electrons
 Dipole moment (field-independent basis, Debye):
    X=              0.0475    Y=              0.0856    Z=              0.0029  Tot=              0.0979
 Quadrupole moment (field-independent basis, Debye-Ang):
   XX=           -113.7056   YY=           -113.9456   ZZ=           -133.2669
   XY=             -0.3834   XZ=              3.2102   YZ=             -1.1839
 Traceless Quadrupole moment (field-independent basis, Debye-Ang):
   XX=              6.6005   YY=              6.3604   ZZ=            -12.9609
   XY=             -0.3834   XZ=              3.2102   YZ=             -1.1839
 Octapole moment (field-independent basis, Debye-Ang**2):
  XXX=            -16.4668  YYY=            -16.1860  ZZZ=             -1.7007  XYY=              2.5576
  XXY=             -6.5650  XXZ=             13.6547  XZZ=             -8.9478  YZZ=            -17.7168
  YYZ=            -13.2941  XYZ=              8.8036
 Hexadecapole moment (field-independent basis, Debye-Ang**3):
 XXXX=          -3951.1638 YYYY=          -3112.2161 ZZZZ=           -504.8311 XXXY=            340.6935
 XXXZ=            156.4968 YYYX=            335.5625 YYYZ=            -87.0893 ZZZX=            120.2262
 ZZZY=           -108.7373 XXYY=          -1176.4844 XXZZ=           -856.7291 YYZZ=           -665.7275
 XXYZ=            -68.9016 YYXZ=             48.1602 ZZXY=            153.0375
 N-N= 1.610917615562D+03 E-N=-5.186891130729D+03  KE= 8.436329774449D+02
 1\1\GINC-BRUSEL\SP\RB3LYP\6-311+G(d,p)\C22H14\YANNICK\14-Aug-2020\0\\#
  rb3lyp/6-311+g** NMR geom=connectivity\\Title\\0,1\C,0,-4.0500558,-0.
 5771862,0.8136712\H,0,-5.0263804,-1.0082727,1.002476\C,0,-3.9381552,0.
 6617804,0.2400876\H,0,-4.8252424,1.233889,-0.0111295\C,0,-2.676841,1.2
 433246,0.0057578\C,0,-1.4974121,0.5051527,0.2848253\C,0,-1.6508332,-0.
 7338728,0.9404026\H,0,-0.7713646,-1.2730967,1.2633753\C,0,-2.8898548,-
 1.2624035,1.1994307\H,0,-2.9683706,-2.2124563,1.7152676\C,0,-2.5773185
 ,2.5963696,-0.419293\H,0,-3.4870728,3.1412239,-0.6474055\C,0,-1.374189
 5,3.2147896,-0.436403\H,0,-1.2997315,4.2742019,-0.6578144\C,0,-0.17194
 88,2.499409,-0.1734588\C,0,-0.2043917,1.1018437,0.0192689\C,0,1.051349
 1,3.204256,-0.0676222\H,0,1.0427344,4.2819499,-0.1896997\C,0,2.1942091
 ,2.5487446,0.2579577\H,0,3.1168527,3.0912848,0.4334727\C,0,2.2216473,1
 .1336562,0.293499\C,0,1.0486931,0.3945528,0.0302412\C,0,3.4483363,0.46
 14633,0.5573939\H,0,4.3095794,1.0606054,0.8334846\C,0,3.5427346,-0.885
 5926,0.4749463\H,0,4.4731467,-1.3939704,0.7038822\C,0,2.4490052,-1.647
 4447,-0.0196319\C,0,1.2150704,-1.0057258,-0.3013573\C,0,0.2531113,-1.7
 43444,-1.0216591\H,0,-0.6541356,-1.2535051,-1.3462847\C,0,0.4494193,-3
 .0628597,-1.3413779\H,0,-0.3083162,-3.5944309,-1.905406\C,0,1.6251726,
 -3.7207967,-0.9552541\H,0,1.7670048,-4.7687404,-1.1927019\C,0,2.610987
 2,-3.0144177,-0.318305\H,0,3.5525612,-3.4902813,-0.0646367\Bq,0,1.0232
 596833,1.8137437167,0.0599809667\Bq,0,-1.6273822455,-0.6291883319,0.90
 62553734\Bq,0,-1.5984303394,-0.639015302,0.7086061442\Bq,0,-1.64185819
 85,-0.6242748468,1.005079988\Bq,0,-1.5839543864,-0.6439287871,0.609781
 5297\Bq,0,-1.6563341516,-0.6193613617,1.1039046026\Bq,0,-1.5694784333,
 -0.6488422722,0.5109569151\Bq,0,-1.6708101046,-0.6144478766,1.20272921
 72\Bq,0,-1.5550024803,-0.6537557573,0.4121323005\Bq,0,-1.6852860577,-0
 .6095343915,1.3015538317\Bq,0,-1.5405265272,-0.6586692423,0.3133076859
 \Bq,0,-1.6129062924,-0.6341018169,0.8074307588\Bq,0,-1.6238215758,-0.1
 29792255,0.8819473496\Bq,0,-1.5948696697,-0.1396192251,0.6842981204\Bq
 ,0,-1.6382975288,-0.1248787699,0.9807719642\Bq,0,-1.5803937166,-0.1445
 327102,0.5854735058\Bq,0,-1.6527734819,-0.1199652848,1.0795965787\Bq,0
 ,-1.5659177636,-0.1494461953,0.4866488912\Bq,0,-1.6672494349,-0.115051
 7997,1.1784211933\Bq,0,-1.5514418106,-0.1543596804,0.3878242767\Bq,0,-
 1.681725388,-0.1101383146,1.2772458079\Bq,0,-1.5369658575,-0.159273165
 5,0.2889996621\Bq,0,-1.6093456227,-0.13470574,0.783122735\Bq,0,-1.6202
 609061,0.3696038219,0.8576393257\Bq,0,-1.591309,0.3597768518,0.6599900
 966\Bq,0,-1.6347368591,0.374517307,0.9564639403\Bq,0,-1.5768330469,0.3
 548633667,0.561165482\Bq,0,-1.6492128122,0.3794307921,1.0552885549\Bq,
 0,-1.5623570939,0.3499498816,0.4623408674\Bq,0,-1.6636887652,0.3843442
 772,1.1541131695\Bq,0,-1.5478811408,0.3450363965,0.3635162528\Bq,0,-1.
 6781647182,0.3892577622,1.2529377841\Bq,0,-1.5334051878,0.3401229114,0
 .2646916382\Bq,0,-1.605784953,0.3646903368,0.7588147112\Bq,0,-1.616700
 2364,0.8689998988,0.8333313019\Bq,0,-1.5877483303,0.8591729286,0.63568
 20727\Bq,0,-1.6311761894,0.8739133839,0.9321559165\Bq,0,-1.5732723772,
 0.8542594436,0.5368574582\Bq,0,-1.6456521424,0.878826869,1.0309805311\
 Bq,0,-1.5587964242,0.8493459585,0.4380328436\Bq,0,-1.6601280955,0.8837
 403541,1.1298051457\Bq,0,-1.5443204711,0.8444324734,0.339208229\Bq,0,-
 1.6746040485,0.8886538391,1.2286297603\Bq,0,-1.5298445181,0.8395189883
 ,0.2403836144\Bq,0,-1.6022242833,0.8640864137,0.7345066873\Bq,0,-1.613
 1395667,1.3683959757,0.8090232781\Bq,0,-1.5841876606,1.3585690055,0.61
 13740489\Bq,0,-1.6276155197,1.3733094608,0.9078478927\Bq,0,-1.56971170
 75,1.3536555204,0.5125494343\Bq,0,-1.6420914727,1.3782229459,1.0066725
 073\Bq,0,-1.5552357545,1.3487420354,0.4137248197\Bq,0,-1.6565674258,1.
 3831364309,1.1054971218\Bq,0,-1.5407598014,1.3438285503,0.3149002052\B
 q,0,-1.6710433788,1.388049916,1.2043217364\Bq,0,-1.5262838484,1.338915
 0652,0.2160755906\Bq,0,-1.5986636136,1.3634824906,0.7101986635\Bq,0,-1
 .6095788969,1.8677920526,0.7847152542\Bq,0,-1.5806269909,1.8579650824,
 0.5870660251\Bq,0,-1.62405485,1.8727055377,0.8835398688\Bq,0,-1.566151
 0378,1.8530515973,0.4882414105\Bq,0,-1.638530803,1.8776190227,0.982364
 4834\Bq,0,-1.5516750848,1.8481381122,0.3894167959\Bq,0,-1.6530067561,1
 .8825325078,1.081189098\Bq,0,-1.5371991317,1.8432246272,0.2905921813\B
 q,0,-1.6674827091,1.8874459929,1.1800137126\Bq,0,-1.5227231787,1.83831
 11421,0.1917675667\Bq,0,-1.5951029439,1.8628785675,0.6858906397\Bq,0,-
 1.6060182272,2.3671881295,0.7604072304\Bq,0,-1.5770663211,2.3573611593
 ,0.5627580012\Bq,0,-1.6204941803,2.3721016145,0.859231845\Bq,0,-1.5625
 903681,2.3524476742,0.4639333867\Bq,0,-1.6349701333,2.3770150996,0.958
 0564596\Bq,0,-1.5481144151,2.3475341891,0.3651087721\Bq,0,-1.649446086
 4,2.3819285847,1.0568810742\Bq,0,-1.533638462,2.342620704,0.2662841575
 \Bq,0,-1.6639220394,2.3868420698,1.1557056888\Bq,0,-1.519162509,2.3377
 07219,0.1674595429\Bq,0,-1.5915422742,2.3622746444,0.6615826158\Bq,0,-
 1.6024575575,2.8665842063,0.7360992066\Bq,0,-1.5735056514,2.8567572362
 ,0.5384499774\Bq,0,-1.6169335106,2.8714976914,0.8349238212\Bq,0,-1.559
 0296984,2.8518437511,0.4396253628\Bq,0,-1.6314094636,2.8764111765,0.93
 37484358\Bq,0,-1.5445537453,2.846930266,0.3408007482\Bq,0,-1.645885416
 7,2.8813246616,1.0325730503\Bq,0,-1.5300777923,2.8420167809,0.24197613
 37\Bq,0,-1.6603613697,2.8862381467,1.1313976649\Bq,0,-1.5156018393,2.8
 371032959,0.1431515191\Bq,0,-1.5879816045,2.8616707213,0.637274592\Bq,
 0,-1.5988968878,3.3659802832,0.7117911828\Bq,0,-1.5699449817,3.3561533
 131,0.5141419536\Bq,0,-1.6133728409,3.3708937683,0.8106157973\Bq,0,-1.
 5554690287,3.351239828,0.415317339\Bq,0,-1.6278487939,3.3758072534,0.9
 094404119\Bq,0,-1.5409930756,3.3463263429,0.3164927244\Bq,0,-1.6423247
 47,3.3807207385,1.0082650265\Bq,0,-1.5265171226,3.3414128578,0.2176681
 098\Bq,0,-1.6568007,3.3856342236,1.1070896411\Bq,0,-1.5120411696,3.336
 4993727,0.1188434952\Bq,0,-1.5844209348,3.3610667981,0.6129665682\Bq,0
 ,-1.5953362181,3.8653763601,0.6874831589\Bq,0,-1.566384312,3.85554939,
 0.4898339297\Bq,0,-1.6098121712,3.8702898452,0.7863077735\Bq,0,-1.5519
 08359,3.8506359049,0.3910093152\Bq,0,-1.6242881242,3.8752033303,0.8851
 323881\Bq,0,-1.5374324059,3.8457224198,0.2921847006\Bq,0,-1.6387640772
 ,3.8801168154,0.9839570027\Bq,0,-1.5229564529,3.8408089347,0.193360086
 \Bq,0,-1.6532400303,3.8850303004,1.0827816173\Bq,0,-1.5084804998,3.835
 8954496,0.0945354714\Bq,0,-1.5808602651,3.860462875,0.5886585443\Bq,0,
 -1.5917755484,4.364772437,0.6631751351\Bq,0,-1.5628236423,4.3549454668
 ,0.4655259059\Bq,0,-1.6062515014,4.3696859221,0.7619997497\Bq,0,-1.548
 3476893,4.3500319818,0.3667012913\Bq,0,-1.6207274545,4.3745994072,0.86
 08243643\Bq,0,-1.5338717362,4.3451184967,0.2678766767\Bq,0,-1.63520340
 75,4.3795128922,0.9596489788\Bq,0,-1.5193957832,4.3402050116,0.1690520
 622\Bq,0,-1.6496793606,4.3844263773,1.0584735934\Bq,0,-1.5049198301,4.
 3352915265,0.0702274476\Bq,0,-1.5772995954,4.3598589519,0.5643505205\B
 q,0,-1.1326616261,-0.6291883319,0.978722668\Bq,0,-1.10370972,-0.639015
 302,0.7810734388\Bq,0,-1.1471375792,-0.6242748468,1.0775472826\Bq,0,-1
 .089233767,-0.6439287871,0.6822488242\Bq,0,-1.1616135322,-0.6193613617
 ,1.1763718971\Bq,0,-1.0747578139,-0.6488422722,0.5834242096\Bq,0,-1.17
 60894853,-0.6144478766,1.2751965117\Bq,0,-1.0602818609,-0.6537557573,0
 .4845995951\Bq,0,-1.1905654383,-0.6095343915,1.3740211263\Bq,0,-1.0458
 059079,-0.6586692423,0.3857749805\Bq,0,-1.1181856731,-0.6341018169,0.8
 798980534\Bq,0,-1.1291009564,-0.129792255,0.9544146441\Bq,0,-1.1001490
 503,-0.1396192251,0.756765415\Bq,0,-1.1435769095,-0.1248787699,1.05323
 92587\Bq,0,-1.0856730973,-0.1445327102,0.6579408004\Bq,0,-1.1580528625
 ,-0.1199652848,1.1520638733\Bq,0,-1.0711971442,-0.1494461953,0.5591161
 858\Bq,0,-1.1725288156,-0.1150517997,1.2508884879\Bq,0,-1.0567211912,-
 0.1543596804,0.4602915712\Bq,0,-1.1870047686,-0.1101383146,1.349713102
 5\Bq,0,-1.0422452382,-0.1592731655,0.3614669566\Bq,0,-1.1146250034,-0.
 13470574,0.8555900296\Bq,0,-1.1255402867,0.3696038219,0.9301066203\Bq,
 0,-1.0965883806,0.3597768518,0.7324573911\Bq,0,-1.1400162398,0.3745173
 07,1.0289312349\Bq,0,-1.0821124276,0.3548633667,0.6336327766\Bq,0,-1.1
 544921928,0.3794307921,1.1277558495\Bq,0,-1.0676364745,0.3499498816,0.
 534808162\Bq,0,-1.1689681458,0.3843442772,1.2265804641\Bq,0,-1.0531605
 215,0.3450363965,0.4359835474\Bq,0,-1.1834440989,0.3892577622,1.325405
 0787\Bq,0,-1.0386845684,0.3401229114,0.3371589328\Bq,0,-1.1110643337,0
 .3646903368,0.8312820057\Bq,0,-1.121979617,0.8689998988,0.9057985965\B
 q,0,-1.0930277109,0.8591729286,0.7081493673\Bq,0,-1.13645557,0.8739133
 839,1.0046232111\Bq,0,-1.0785517579,0.8542594436,0.6093247527\Bq,0,-1.
 1509315231,0.878826869,1.1034478257\Bq,0,-1.0640758048,0.8493459585,0.
 5105001381\Bq,0,-1.1654074761,0.8837403541,1.2022724402\Bq,0,-1.049599
 8518,0.8444324734,0.4116755236\Bq,0,-1.1798834292,0.8886538391,1.30109
 70548\Bq,0,-1.0351238987,0.8395189883,0.312850909\Bq,0,-1.107503664,0.
 8640864137,0.8069739819\Bq,0,-1.1184189473,1.3683959757,0.8814905727\B
 q,0,-1.0894670412,1.3585690055,0.6838413435\Bq,0,-1.1328949003,1.37330
 94608,0.9803151872\Bq,0,-1.0749910882,1.3536555204,0.5850167289\Bq,0,-
 1.1473708534,1.3782229459,1.0791398018\Bq,0,-1.0605151351,1.3487420354
 ,0.4861921143\Bq,0,-1.1618468064,1.3831364309,1.1779644164\Bq,0,-1.046
 0391821,1.3438285503,0.3873674997\Bq,0,-1.1763227595,1.388049916,1.276
 789031\Bq,0,-1.031563229,1.3389150652,0.2885428851\Bq,0,-1.1039429942,
 1.3634824906,0.7826659581\Bq,0,-1.1148582776,1.8677920526,0.8571825488
 \Bq,0,-1.0859063715,1.8579650824,0.6595333196\Bq,0,-1.1293342306,1.872
 7055377,0.9560071634\Bq,0,-1.0714304185,1.8530515973,0.5607087051\Bq,0
 ,-1.1438101837,1.8776190227,1.054831778\Bq,0,-1.0569544654,1.848138112
 2,0.4618840905\Bq,0,-1.1582861367,1.8825325078,1.1536563926\Bq,0,-1.04
 24785124,1.8432246272,0.3630594759\Bq,0,-1.1727620898,1.8874459929,1.2
 524810072\Bq,0,-1.0280025593,1.8383111421,0.2642348613\Bq,0,-1.1003823
 245,1.8628785675,0.7583579342\Bq,0,-1.1112976079,2.3671881295,0.832874
 525\Bq,0,-1.0823457018,2.3573611593,0.6352252958\Bq,0,-1.1257735609,2.
 3721016145,0.9316991396\Bq,0,-1.0678697487,2.3524476742,0.5364006812\B
 q,0,-1.140249514,2.3770150996,1.0305237542\Bq,0,-1.0533937957,2.347534
 1891,0.4375760666\Bq,0,-1.154725467,2.3819285847,1.1293483687\Bq,0,-1.
 0389178427,2.342620704,0.3387514521\Bq,0,-1.1692014201,2.3868420698,1.
 2281729833\Bq,0,-1.0244418896,2.337707219,0.2399268375\Bq,0,-1.0968216
 548,2.3622746444,0.7340499104\Bq,0,-1.1077369382,2.8665842063,0.808566
 5012\\Version=ES64L-G09RevD.01\HF=-847.0032898\RMSD=7.620e-09\Dipole=0
 .0186808,0.0336671,0.0011595\Quadrupole=4.9072795,4.7288219,-9.6361014
 ,-0.2850201,2.3867064,-0.880172\PG=C01 [X(C22H14)]\\@


 THE TEST OF A FIRST RATE INTELLIGENCE IS THE ABILITY TO HOLD TWO OPPOSED
 IDEAS IN THE MIND AT THE SAME TIME, AND STILL RETAIN THE ABILITY TO FUNCTION.
 ONE SHOULD, FOR EXAMPLE, BE ABLE TO SEE THAT THINGS ARE HOPELESS AND YET BE
 DETERMINED TO MAKE THEM OTHERWISE.

                                                       -- F. SCOTT FITZGERALD
 Job cpu time:       0 days  4 hours  0 minutes 28.3 seconds.
 File lengths (MBytes):  RWF=    184 Int=      0 D2E=      0 Chk=     19 Scr=      1
 Normal termination of Gaussian 09 at Fri Aug 14 17:43:24 2020.

real	30m39.522s
user	240m25.787s
sys	0m2.606s
