 Entering Gaussian System, Link 0=g16
 Initial command:
 /share/programs/G16_SLATER/g16/l1.exe "/scratch/aartigas.27131/Gau-4470.inp" -scrdir="/scratch/aartigas.27131/"
 Entering Link 1 = /share/programs/G16_SLATER/g16/l1.exe PID=      4479.
  
 Copyright (c) 1988,1990,1992,1993,1995,1998,2003,2009,2016,
            Gaussian, Inc.  All Rights Reserved.
  
 This is part of the Gaussian(R) 16 program.  It is based on
 the Gaussian(R) 09 system (copyright 2009, Gaussian, Inc.),
 the Gaussian(R) 03 system (copyright 2003, Gaussian, Inc.),
 the Gaussian(R) 98 system (copyright 1998, Gaussian, Inc.),
 the Gaussian(R) 94 system (copyright 1995, Gaussian, Inc.),
 the Gaussian 92(TM) system (copyright 1992, Gaussian, Inc.),
 the Gaussian 90(TM) system (copyright 1990, Gaussian, Inc.),
 the Gaussian 88(TM) system (copyright 1988, Gaussian, Inc.),
 the Gaussian 86(TM) system (copyright 1986, Carnegie Mellon
 University), and the Gaussian 82(TM) system (copyright 1983,
 Carnegie Mellon University). Gaussian is a federally registered
 trademark of Gaussian, Inc.
  
 This software contains proprietary and confidential information,
 including trade secrets, belonging to Gaussian, Inc.
  
 This software is provided under written license and may be
 used, copied, transmitted, or stored only in accord with that
 written license.
  
 The following legend is applicable only to US Government
 contracts under FAR:
  
                    RESTRICTED RIGHTS LEGEND
  
 Use, reproduction and disclosure by the US Government is
 subject to restrictions as set forth in subparagraphs (a)
 and (c) of the Commercial Computer Software - Restricted
 Rights clause in FAR 52.227-19.
  
 Gaussian, Inc.
 340 Quinnipiac St., Bldg. 40, Wallingford CT 06492
  
  
 ---------------------------------------------------------------
 Warning -- This program may not be used in any manner that
 competes with the business of Gaussian, Inc. or will provide
 assistance to any competitor of Gaussian, Inc.  The licensee
 of this program is prohibited from giving any competitor of
 Gaussian, Inc. access to this program.  By using this program,
 the user acknowledges that Gaussian, Inc. is engaged in the
 business of creating and licensing software in the field of
 computational chemistry and represents and warrants to the
 licensee that it is not a competitor of Gaussian, Inc. and that
 it will not use this program in any manner prohibited above.
 ---------------------------------------------------------------
  

 Cite this work as:
 Gaussian 16, Revision A.03,
 M. J. Frisch, G. W. Trucks, H. B. Schlegel, G. E. Scuseria, 
 M. A. Robb, J. R. Cheeseman, G. Scalmani, V. Barone, 
 G. A. Petersson, H. Nakatsuji, X. Li, M. Caricato, A. V. Marenich, 
 J. Bloino, B. G. Janesko, R. Gomperts, B. Mennucci, H. P. Hratchian, 
 J. V. Ortiz, A. F. Izmaylov, J. L. Sonnenberg, D. Williams-Young, 
 F. Ding, F. Lipparini, F. Egidi, J. Goings, B. Peng, A. Petrone, 
 T. Henderson, D. Ranasinghe, V. G. Zakrzewski, J. Gao, N. Rega, 
 G. Zheng, W. Liang, M. Hada, M. Ehara, K. Toyota, R. Fukuda, 
 J. Hasegawa, M. Ishida, T. Nakajima, Y. Honda, O. Kitao, H. Nakai, 
 T. Vreven, K. Throssell, J. A. Montgomery, Jr., J. E. Peralta, 
 F. Ogliaro, M. J. Bearpark, J. J. Heyd, E. N. Brothers, K. N. Kudin, 
 V. N. Staroverov, T. A. Keith, R. Kobayashi, J. Normand, 
 K. Raghavachari, A. P. Rendell, J. C. Burant, S. S. Iyengar, 
 J. Tomasi, M. Cossi, J. M. Millam, M. Klene, C. Adamo, R. Cammi, 
 J. W. Ochterski, R. L. Martin, K. Morokuma, O. Farkas, 
 J. B. Foresman, and D. J. Fox, Gaussian, Inc., Wallingford CT, 2016.
 
 ******************************************
 Gaussian 16:  ES64L-G16RevA.03 25-Dec-2016
                 5-Aug-2020 
 ******************************************
 %nproc=8
 Will use up to    8 processors via shared memory.
 ----------------------
 # rb3lyp/6-311+g** NMR
 ----------------------
 1/38=1,172=1/1;
 2/12=2,17=6,18=5,40=1/2;
 3/5=4,6=6,7=111,11=2,25=1,30=1,74=-5,116=1/1,2,3,8;
 4//1;
 5/5=2,38=5/2;
 8/6=1,10=90,11=11/1;
 10/13=100,45=16/2;
 6/7=2,8=2,9=2,10=2,28=1/1;
 99/9=1/99;
 -----
 Title
 -----
 Symbolic Z-matrix:
 Charge =  0 Multiplicity = 1
 C                    -4.05006  -0.57719   0.81367 
 H                    -5.02638  -1.00827   1.00248 
 C                    -3.93816   0.66178   0.24009 
 H                    -4.82524   1.23389  -0.01113 
 C                    -2.67684   1.24332   0.00576 
 C                    -1.49741   0.50515   0.28483 
 C                    -1.65083  -0.73387   0.9404 
 H                    -0.77136  -1.2731    1.26338 
 C                    -2.88985  -1.2624    1.19943 
 H                    -2.96837  -2.21246   1.71527 
 C                    -2.57732   2.59637  -0.41929 
 H                    -3.48707   3.14122  -0.64741 
 C                    -1.37419   3.21479  -0.4364 
 H                    -1.29973   4.2742   -0.65781 
 C                    -0.17195   2.49941  -0.17346 
 C                    -0.20439   1.10184   0.01927 
 C                     1.05135   3.20426  -0.06762 
 H                     1.04273   4.28195  -0.1897 
 C                     2.19421   2.54874   0.25796 
 H                     3.11685   3.09128   0.43347 
 C                     2.22165   1.13366   0.2935 
 C                     1.04869   0.39455   0.03024 
 C                     3.44834   0.46146   0.55739 
 H                     4.30958   1.06061   0.83348 
 C                     3.54273  -0.88559   0.47495 
 H                     4.47315  -1.39397   0.70388 
 C                     2.44901  -1.64744  -0.01963 
 C                     1.21507  -1.00573  -0.30136 
 C                     0.25311  -1.74344  -1.02166 
 H                    -0.65414  -1.25351  -1.34628 
 C                     0.44942  -3.06286  -1.34138 
 H                    -0.30832  -3.59443  -1.90541 
 C                     1.62517  -3.7208   -0.95525 
 H                     1.767    -4.76874  -1.1927 
 C                     2.61099  -3.01442  -0.31831 
 H                     3.55256  -3.49028  -0.06464 
 Bq                   -1.41702   1.86015  -0.11988 
 Bq                   -3.9778   -0.31785   1.36292 
 Bq                   -3.97293   0.16684   1.24027 
 Bq                   -3.96807   0.65154   1.11762 
 Bq                   -3.9632    1.13624   0.99497 
 Bq                   -3.95834   1.62094   0.87232 
 Bq                   -3.95347   2.10564   0.74967 
 Bq                   -3.94861   2.59034   0.62702 
 Bq                   -3.94374   3.07504   0.50437 
 Bq                   -3.93888   3.55974   0.38172 
 Bq                   -3.93401   4.04444   0.25907 
 Bq                   -3.47819  -0.31785   1.38274 
 Bq                   -3.47332   0.16684   1.26009 
 Bq                   -3.46846   0.65154   1.13744 
 Bq                   -3.46359   1.13624   1.01479 
 Bq                   -3.45873   1.62094   0.89214 
 Bq                   -3.45387   2.10564   0.76949 
 Bq                   -3.449     2.59034   0.64684 
 Bq                   -3.44414   3.07504   0.52419 
 Bq                   -3.43927   3.55974   0.40154 
 Bq                   -3.43441   4.04444   0.27889 
 Bq                   -2.97858  -0.31785   1.40255 
 Bq                   -2.97372   0.16684   1.2799 
 Bq                   -2.96885   0.65154   1.15725 
 Bq                   -2.96399   1.13624   1.0346 
 Bq                   -2.95912   1.62094   0.91195 
 Bq                   -2.95426   2.10564   0.7893 
 Bq                   -2.94939   2.59034   0.66665 
 Bq                   -2.94453   3.07504   0.544 
 Bq                   -2.93966   3.55974   0.42135 
 Bq                   -2.9348    4.04444   0.2987 
 Bq                   -2.47897  -0.31785   1.42237 
 Bq                   -2.47411   0.16684   1.29972 
 Bq                   -2.46925   0.65154   1.17707 
 Bq                   -2.46438   1.13624   1.05442 
 Bq                   -2.45952   1.62094   0.93177 
 Bq                   -2.45465   2.10564   0.80912 
 Bq                   -2.44979   2.59034   0.68647 
 Bq                   -2.44492   3.07504   0.56382 
 Bq                   -2.44006   3.55974   0.44117 
 Bq                   -2.43519   4.04444   0.31852 
 Bq                   -1.97937  -0.31785   1.44219 
 Bq                   -1.9745    0.16684   1.31954 
 Bq                   -1.96964   0.65154   1.19689 
 Bq                   -1.96477   1.13624   1.07424 
 Bq                   -1.95991   1.62094   0.95159 
 Bq                   -1.95504   2.10564   0.82894 
 Bq                   -1.95018   2.59034   0.70629 
 Bq                   -1.94531   3.07504   0.58364 
 Bq                   -1.94045   3.55974   0.46099 
 Bq                   -1.93558   4.04444   0.33834 
 Bq                   -1.47976  -0.31785   1.462 
 Bq                   -1.4749    0.16684   1.33935 
 Bq                   -1.47003   0.65154   1.2167 
 Bq                   -1.46517   1.13624   1.09405 
 Bq                   -1.4603    1.62094   0.9714 
 Bq                   -1.45544   2.10564   0.84875 
 Bq                   -1.45057   2.59034   0.7261 
 Bq                   -1.44571   3.07504   0.60345 
 Bq                   -1.44084   3.55974   0.4808 
 Bq                   -1.43598   4.04444   0.35815 
 Bq                   -0.98015  -0.31785   1.48182 
 Bq                   -0.97529   0.16684   1.35917 
 Bq                   -0.97042   0.65154   1.23652 
 Bq                   -0.96556   1.13624   1.11387 
 Bq                   -0.96069   1.62094   0.99122 
 Bq                   -0.95583   2.10564   0.86857 
 Bq                   -0.95096   2.59034   0.74592 
 Bq                   -0.9461    3.07504   0.62327 
 Bq                   -0.94124   3.55974   0.50062 
 Bq                   -0.93637   4.04444   0.37797 
 Bq                   -0.48055  -0.31785   1.50164 
 Bq                   -0.47568   0.16684   1.37899 
 Bq                   -0.47082   0.65154   1.25634 
 Bq                   -0.46595   1.13624   1.13369 
 Bq                   -0.46109   1.62094   1.01104 
 Bq                   -0.45622   2.10564   0.88839 
 Bq                   -0.45136   2.59034   0.76574 
 Bq                   -0.44649   3.07504   0.64309 
 Bq                   -0.44163   3.55974   0.52044 
 Bq                   -0.43676   4.04444   0.39778 
 Bq                    0.01906  -0.31785   1.52145 
 Bq                    0.02393   0.16684   1.3988 
 Bq                    0.02879   0.65154   1.27615 
 Bq                    0.03366   1.13624   1.1535 
 Bq                    0.03852   1.62094   1.03085 
 Bq                    0.04338   2.10564   0.9082 
 Bq                    0.04825   2.59034   0.78555 
 Bq                    0.05311   3.07504   0.6629 
 Bq                    0.05798   3.55974   0.54025 
 Bq                    0.06284   4.04444   0.4176 
 Bq                    0.51867  -0.31785   1.54127 
 Bq                    0.52353   0.16684   1.41862 
 Bq                    0.5284    0.65154   1.29597 
 Bq                    0.53326   1.13624   1.17332 
 Bq                    0.53813   1.62094   1.05067 
 Bq                    0.54299   2.10564   0.92802 
 Bq                    0.54786   2.59034   0.80537 
 Bq                    0.55272   3.07504   0.68272 
 Bq                    0.55759   3.55974   0.56007 
 Bq                    0.56245   4.04444   0.43742 
 
 Symmetry turned off:
 Cannot cope with ghost atoms or with translation vectors.
 Stoichiometry    C22H14
 Framework group  C1[X(C22H14)]
 NumDoF:  NAt=    36 NAtoms=   137
 Deg. of freedom     0
 Full point group                 C1      NOp   1
                          Input orientation:                          
 ---------------------------------------------------------------------
 Center     Atomic      Atomic             Coordinates (Angstroms)
 Number     Number       Type             X           Y           Z
 ---------------------------------------------------------------------
      1          6           0       -4.050056   -0.577186    0.813671
      2          1           0       -5.026380   -1.008273    1.002476
      3          6           0       -3.938155    0.661780    0.240088
      4          1           0       -4.825242    1.233889   -0.011130
      5          6           0       -2.676841    1.243325    0.005758
      6          6           0       -1.497412    0.505153    0.284825
      7          6           0       -1.650833   -0.733873    0.940403
      8          1           0       -0.771365   -1.273097    1.263375
      9          6           0       -2.889855   -1.262404    1.199431
     10          1           0       -2.968371   -2.212456    1.715268
     11          6           0       -2.577319    2.596370   -0.419293
     12          1           0       -3.487073    3.141224   -0.647406
     13          6           0       -1.374190    3.214790   -0.436403
     14          1           0       -1.299732    4.274202   -0.657814
     15          6           0       -0.171949    2.499409   -0.173459
     16          6           0       -0.204392    1.101844    0.019269
     17          6           0        1.051349    3.204256   -0.067622
     18          1           0        1.042734    4.281950   -0.189700
     19          6           0        2.194209    2.548745    0.257958
     20          1           0        3.116853    3.091285    0.433473
     21          6           0        2.221647    1.133656    0.293499
     22          6           0        1.048693    0.394553    0.030241
     23          6           0        3.448336    0.461463    0.557394
     24          1           0        4.309579    1.060605    0.833485
     25          6           0        3.542735   -0.885593    0.474946
     26          1           0        4.473147   -1.393970    0.703882
     27          6           0        2.449005   -1.647445   -0.019632
     28          6           0        1.215070   -1.005726   -0.301357
     29          6           0        0.253111   -1.743444   -1.021659
     30          1           0       -0.654136   -1.253505   -1.346285
     31          6           0        0.449419   -3.062860   -1.341378
     32          1           0       -0.308316   -3.594431   -1.905406
     33          6           0        1.625173   -3.720797   -0.955254
     34          1           0        1.767005   -4.768740   -1.192702
     35          6           0        2.610987   -3.014418   -0.318305
     36          1           0        3.552561   -3.490281   -0.064637
     37          0           0       -1.417017    1.860148   -0.119884
     38          0           0       -3.977796   -0.317854    1.362922
     39          0           0       -3.972932    0.166845    1.240272
     40          0           0       -3.968067    0.651544    1.117622
     41          0           0       -3.963202    1.136243    0.994972
     42          0           0       -3.958337    1.620942    0.872321
     43          0           0       -3.953473    2.105641    0.749671
     44          0           0       -3.948608    2.590341    0.627021
     45          0           0       -3.943743    3.075040    0.504371
     46          0           0       -3.938878    3.559739    0.381721
     47          0           0       -3.934013    4.044438    0.259071
     48          0           0       -3.478189   -0.317854    1.382738
     49          0           0       -3.473324    0.166845    1.260088
     50          0           0       -3.468460    0.651544    1.137438
     51          0           0       -3.463595    1.136243    1.014788
     52          0           0       -3.458730    1.620942    0.892138
     53          0           0       -3.453865    2.105641    0.769488
     54          0           0       -3.449001    2.590341    0.646837
     55          0           0       -3.444136    3.075040    0.524187
     56          0           0       -3.439271    3.559739    0.401537
     57          0           0       -3.434406    4.044438    0.278887
     58          0           0       -2.978582   -0.317854    1.402555
     59          0           0       -2.973717    0.166845    1.279905
     60          0           0       -2.968853    0.651544    1.157254
     61          0           0       -2.963988    1.136243    1.034604
     62          0           0       -2.959123    1.620942    0.911954
     63          0           0       -2.954258    2.105641    0.789304
     64          0           0       -2.949393    2.590341    0.666654
     65          0           0       -2.944529    3.075040    0.544004
     66          0           0       -2.939664    3.559739    0.421353
     67          0           0       -2.934799    4.044438    0.298703
     68          0           0       -2.478975   -0.317854    1.422371
     69          0           0       -2.474110    0.166845    1.299721
     70          0           0       -2.469245    0.651544    1.177071
     71          0           0       -2.464381    1.136243    1.054421
     72          0           0       -2.459516    1.620942    0.931770
     73          0           0       -2.454651    2.105641    0.809120
     74          0           0       -2.449786    2.590341    0.686470
     75          0           0       -2.444922    3.075040    0.563820
     76          0           0       -2.440057    3.559739    0.441170
     77          0           0       -2.435192    4.044438    0.318520
     78          0           0       -1.979368   -0.317854    1.442187
     79          0           0       -1.974503    0.166845    1.319537
     80          0           0       -1.969638    0.651544    1.196887
     81          0           0       -1.964773    1.136243    1.074237
     82          0           0       -1.959909    1.620942    0.951587
     83          0           0       -1.955044    2.105641    0.828937
     84          0           0       -1.950179    2.590341    0.706286
     85          0           0       -1.945314    3.075040    0.583636
     86          0           0       -1.940450    3.559739    0.460986
     87          0           0       -1.935585    4.044438    0.338336
     88          0           0       -1.479761   -0.317854    1.462004
     89          0           0       -1.474896    0.166845    1.339353
     90          0           0       -1.470031    0.651544    1.216703
     91          0           0       -1.465166    1.136243    1.094053
     92          0           0       -1.460302    1.620942    0.971403
     93          0           0       -1.455437    2.105641    0.848753
     94          0           0       -1.450572    2.590341    0.726103
     95          0           0       -1.445707    3.075040    0.603453
     96          0           0       -1.440842    3.559739    0.480802
     97          0           0       -1.435978    4.044438    0.358152
     98          0           0       -0.980153   -0.317854    1.481820
     99          0           0       -0.975289    0.166845    1.359170
    100          0           0       -0.970424    0.651544    1.236520
    101          0           0       -0.965559    1.136243    1.113869
    102          0           0       -0.960694    1.620942    0.991219
    103          0           0       -0.955830    2.105641    0.868569
    104          0           0       -0.950965    2.590341    0.745919
    105          0           0       -0.946100    3.075040    0.623269
    106          0           0       -0.941235    3.559739    0.500619
    107          0           0       -0.936371    4.044438    0.377969
    108          0           0       -0.480546   -0.317854    1.501636
    109          0           0       -0.475682    0.166845    1.378986
    110          0           0       -0.470817    0.651544    1.256336
    111          0           0       -0.465952    1.136243    1.133686
    112          0           0       -0.461087    1.620942    1.011036
    113          0           0       -0.456222    2.105641    0.888386
    114          0           0       -0.451358    2.590341    0.765735
    115          0           0       -0.446493    3.075040    0.643085
    116          0           0       -0.441628    3.559739    0.520435
    117          0           0       -0.436763    4.044438    0.397785
    118          0           0        0.019061   -0.317854    1.521453
    119          0           0        0.023926    0.166845    1.398802
    120          0           0        0.028790    0.651544    1.276152
    121          0           0        0.033655    1.136243    1.153502
    122          0           0        0.038520    1.620942    1.030852
    123          0           0        0.043385    2.105641    0.908202
    124          0           0        0.048250    2.590341    0.785552
    125          0           0        0.053114    3.075040    0.662902
    126          0           0        0.057979    3.559739    0.540251
    127          0           0        0.062844    4.044438    0.417601
    128          0           0        0.518668   -0.317854    1.541269
    129          0           0        0.523533    0.166845    1.418619
    130          0           0        0.528398    0.651544    1.295969
    131          0           0        0.533262    1.136243    1.173318
    132          0           0        0.538127    1.620942    1.050668
    133          0           0        0.542992    2.105641    0.928018
    134          0           0        0.547857    2.590341    0.805368
    135          0           0        0.552721    3.075040    0.682718
    136          0           0        0.557586    3.559739    0.560068
    137          0           0        0.562451    4.044438    0.437418
 ---------------------------------------------------------------------
 Rotational constants (GHZ):           0.4529074           0.2836956           0.1879557
 Standard basis: 6-311+G(d,p) (5D, 7F)
 Warning:  center  37 has no basis functions!
 Warning:  center  38 has no basis functions!
 Warning:  center  39 has no basis functions!
 Warning:  center  40 has no basis functions!
 Warning:  center  41 has no basis functions!
 Warning:  center  42 has no basis functions!
 Warning:  center  43 has no basis functions!
 Warning:  center  44 has no basis functions!
 Warning:  center  45 has no basis functions!
 Warning:  center  46 has no basis functions!
 Warning:  center  47 has no basis functions!
 Warning:  center  48 has no basis functions!
 Warning:  center  49 has no basis functions!
 Warning:  center  50 has no basis functions!
 Warning:  center  51 has no basis functions!
 Warning:  center  52 has no basis functions!
 Warning:  center  53 has no basis functions!
 Warning:  center  54 has no basis functions!
 Warning:  center  55 has no basis functions!
 Warning:  center  56 has no basis functions!
 Warning:  center  57 has no basis functions!
 Warning:  center  58 has no basis functions!
 Warning:  center  59 has no basis functions!
 Warning:  center  60 has no basis functions!
 Warning:  center  61 has no basis functions!
 Warning:  center  62 has no basis functions!
 Warning:  center  63 has no basis functions!
 Warning:  center  64 has no basis functions!
 Warning:  center  65 has no basis functions!
 Warning:  center  66 has no basis functions!
 Warning:  center  67 has no basis functions!
 Warning:  center  68 has no basis functions!
 Warning:  center  69 has no basis functions!
 Warning:  center  70 has no basis functions!
 Warning:  center  71 has no basis functions!
 Warning:  center  72 has no basis functions!
 Warning:  center  73 has no basis functions!
 Warning:  center  74 has no basis functions!
 Warning:  center  75 has no basis functions!
 Warning:  center  76 has no basis functions!
 Warning:  center  77 has no basis functions!
 Warning:  center  78 has no basis functions!
 Warning:  center  79 has no basis functions!
 Warning:  center  80 has no basis functions!
 Warning:  center  81 has no basis functions!
 Warning:  center  82 has no basis functions!
 Warning:  center  83 has no basis functions!
 Warning:  center  84 has no basis functions!
 Warning:  center  85 has no basis functions!
 Warning:  center  86 has no basis functions!
 Warning:  center  87 has no basis functions!
 Warning:  center  88 has no basis functions!
 Warning:  center  89 has no basis functions!
 Warning:  center  90 has no basis functions!
 Warning:  center  91 has no basis functions!
 Warning:  center  92 has no basis functions!
 Warning:  center  93 has no basis functions!
 Warning:  center  94 has no basis functions!
 Warning:  center  95 has no basis functions!
 Warning:  center  96 has no basis functions!
 Warning:  center  97 has no basis functions!
 Warning:  center  98 has no basis functions!
 Warning:  center  99 has no basis functions!
 Warning:  center 100 has no basis functions!
 Warning:  center 101 has no basis functions!
 Warning:  center 102 has no basis functions!
 Warning:  center 103 has no basis functions!
 Warning:  center 104 has no basis functions!
 Warning:  center 105 has no basis functions!
 Warning:  center 106 has no basis functions!
 Warning:  center 107 has no basis functions!
 Warning:  center 108 has no basis functions!
 Warning:  center 109 has no basis functions!
 Warning:  center 110 has no basis functions!
 Warning:  center 111 has no basis functions!
 Warning:  center 112 has no basis functions!
 Warning:  center 113 has no basis functions!
 Warning:  center 114 has no basis functions!
 Warning:  center 115 has no basis functions!
 Warning:  center 116 has no basis functions!
 Warning:  center 117 has no basis functions!
 Warning:  center 118 has no basis functions!
 Warning:  center 119 has no basis functions!
 Warning:  center 120 has no basis functions!
 Warning:  center 121 has no basis functions!
 Warning:  center 122 has no basis functions!
 Warning:  center 123 has no basis functions!
 Warning:  center 124 has no basis functions!
 Warning:  center 125 has no basis functions!
 Warning:  center 126 has no basis functions!
 Warning:  center 127 has no basis functions!
 Warning:  center 128 has no basis functions!
 Warning:  center 129 has no basis functions!
 Warning:  center 130 has no basis functions!
 Warning:  center 131 has no basis functions!
 Warning:  center 132 has no basis functions!
 Warning:  center 133 has no basis functions!
 Warning:  center 134 has no basis functions!
 Warning:  center 135 has no basis functions!
 Warning:  center 136 has no basis functions!
 Warning:  center 137 has no basis functions!
   568 basis functions,   904 primitive gaussians,   590 cartesian basis functions
    73 alpha electrons       73 beta electrons
       nuclear repulsion energy      1610.9176226554 Hartrees.
 NAtoms=  137 NActive=  137 NUniq=  137 SFac= 1.00D+00 NAtFMM=   60 NAOKFM=T Big=T
 Integral buffers will be    131072 words long.
 Raffenetti 2 integral format.
 Two-electron integral symmetry is turned off.
 One-electron integrals computed using PRISM.
 NBasis=   568 RedAO= T EigKep=  1.78D-06  NBF=   568
 NBsUse=   556 1.00D-06 EigRej=  9.09D-07 NBFU=   556
 ExpMin= 4.38D-02 ExpMax= 4.56D+03 ExpMxC= 6.82D+02 IAcc=3 IRadAn=         5 AccDes= 0.00D+00
 Harris functional with IExCor=  402 and IRadAn=       5 diagonalized for initial guess.
 HarFok:  IExCor=  402 AccDes= 0.00D+00 IRadAn=         5 IDoV= 1 UseB2=F ITyADJ=14
 ICtDFT=  3500011 ScaDFX=  1.000000  1.000000  1.000000  1.000000
 FoFCou: FMM=F IPFlag=           0 FMFlag=      100000 FMFlg1=        2001
         NFxFlg=           0 DoJE=T BraDBF=F KetDBF=T FulRan=T
         wScrn=  0.000000 ICntrl=       500 IOpCl=  0 I1Cent=   200000004 NGrid=           0
         NMat0=    1 NMatS0=      1 NMatT0=    0 NMatD0=    1 NMtDS0=    0 NMtDT0=    0
 Symmetry not used in FoFCou.
 Requested convergence on RMS density matrix=1.00D-08 within 128 cycles.
 Requested convergence on MAX density matrix=1.00D-06.
 Requested convergence on             energy=1.00D-06.
 No special actions if energy rises.
 SCF Done:  E(RB3LYP) =  -847.003283891     A.U. after   15 cycles
            NFock= 15  Conv=0.77D-08     -V/T= 2.0040
 DoSCS=F DFT=T ScalE2(SS,OS)=  1.000000  1.000000
 Range of M.O.s used for correlation:     1   556
 NBasis=   568 NAE=    73 NBE=    73 NFC=     0 NFV=     0
 NROrb=    556 NOA=    73 NOB=    73 NVA=   483 NVB=   483

 **** Warning!!: The largest alpha MO coefficient is  0.10864959D+03

          Differentiating once with respect to magnetic field using GIAOs.
          Electric field/nuclear overlap derivatives assumed to be zero.
 FoFCou: FMM=F IPFlag=           0 FMFlag=      100000 FMFlg1=        2001
         NFxFlg=           0 DoJE=F BraDBF=F KetDBF=T FulRan=T
         wScrn=  0.000000 ICntrl=      6100 IOpCl=  0 I1Cent=           7 NGrid=         137
         NMat0=    1 NMatS0=      1 NMatT0=    0 NMatD0=    1 NMtDS0=    0 NMtDT0=    0
 Symmetry not used in FoFCou.
 FoFJK:  IHMeth= 1 ICntrl=    6127 DoSepK=F KAlg= 0 I1Cent=           0 FoldK=F
 IRaf=         1 NMat=       1 IRICut=       1 DoRegI=T DoRafI=F ISym2E= 0 IDoP0=0 IntGTp=1.
          There are     3 degrees of freedom in the 1st order CPHF.  IDoFFX=0 NUNeed=     3.
      3 vectors produced by pass  0 Test12= 1.18D-12 3.33D-08 XBig12= 2.07D+03 9.18D+00.
 AX will form     3 AO Fock derivatives at one time.
      3 vectors produced by pass  1 Test12= 1.18D-12 3.33D-08 XBig12= 3.57D+00 8.02D-01.
      3 vectors produced by pass  2 Test12= 1.18D-12 3.33D-08 XBig12= 2.10D-02 6.93D-02.
      3 vectors produced by pass  3 Test12= 1.18D-12 3.33D-08 XBig12= 5.46D-05 1.89D-03.
      3 vectors produced by pass  4 Test12= 1.18D-12 3.33D-08 XBig12= 1.20D-07 7.78D-05.
      3 vectors produced by pass  5 Test12= 1.18D-12 3.33D-08 XBig12= 4.03D-10 4.76D-06.
      3 vectors produced by pass  6 Test12= 1.18D-12 3.33D-08 XBig12= 2.01D-12 3.04D-07.
      3 vectors produced by pass  7 Test12= 1.18D-12 3.33D-08 XBig12= 3.13D-13 8.91D-08.
      3 vectors produced by pass  8 Test12= 1.18D-12 3.33D-08 XBig12= 6.76D-13 8.96D-08.
      3 vectors produced by pass  9 Test12= 1.18D-12 3.33D-08 XBig12= 1.59D-13 6.62D-08.
      3 vectors produced by pass 10 Test12= 1.18D-12 3.33D-08 XBig12= 4.82D-13 1.01D-07.
      3 vectors produced by pass 11 Test12= 1.18D-12 3.33D-08 XBig12= 3.49D-13 5.55D-08.
      2 vectors produced by pass 12 Test12= 1.18D-12 3.33D-08 XBig12= 2.95D-13 5.94D-08.
 InvSVY:  IOpt=1 It=  1 EMax= 2.13D-14
 Solved reduced A of dimension    38 with     3 vectors.
 Calculating GIAO nuclear magnetic shielding tensors.
 SCF GIAO Magnetic shielding tensor (ppm):
      1  C    Isotropic =    53.1700   Anisotropy =   178.4458
   XX=   -42.1952   YX=   -32.3046   ZX=    10.0983
   XY=   -29.1770   YY=    58.3204   ZY=    55.3788
   XZ=    13.2067   YZ=    58.8864   ZZ=   143.3849
   Eigenvalues:   -54.8969    42.2731   172.1339
      2  H    Isotropic =    24.3249   Anisotropy =     5.0184
   XX=    25.4938   YX=    -0.9967   ZX=     0.6985
   XY=    -0.8097   YY=    26.3053   ZY=    -2.3448
   XZ=    -0.1423   YZ=    -2.4831   ZZ=    21.1757
   Eigenvalues:    20.2173    25.0870    27.6705
      3  C    Isotropic =    51.5990   Anisotropy =   155.8040
   XX=   -29.2759   YX=    37.6891   ZX=   -17.5069
   XY=    34.9361   YY=    49.2645   ZY=    49.4008
   XZ=    -9.1821   YZ=    44.1902   ZZ=   134.8085
   Eigenvalues:   -48.6044    47.9331   155.4684
      4  H    Isotropic =    23.7953   Anisotropy =     7.2788
   XX=    25.2686   YX=     1.9043   ZX=    -0.3918
   XY=     2.0867   YY=    26.4310   ZY=    -2.5190
   XZ=    -1.3415   YZ=    -2.4824   ZZ=    19.6862
   Eigenvalues:    18.8536    23.8844    28.6478
      5  C    Isotropic =    46.3293   Anisotropy =   208.7938
   XX=   -18.7634   YX=    -5.0283   ZX=    -1.1374
   XY=     2.6118   YY=    -3.3596   ZY=    66.9810
   XZ=     2.7770   YZ=    68.8332   ZZ=   161.1107
   Eigenvalues:   -27.9901   -18.5472   185.5251
      6  C    Isotropic =    48.1538   Anisotropy =   197.7355
   XX=   -27.9572   YX=    -2.2961   ZX=    12.1324
   XY=   -15.6813   YY=    21.4233   ZY=    74.5314
   XZ=   -17.4434   YZ=    60.5697   ZZ=   150.9954
   Eigenvalues:   -30.3962    -5.1197   179.9775
      7  C    Isotropic =    49.2652   Anisotropy =   180.1198
   XX=   -13.2296   YX=    28.7139   ZX=   -24.2977
   XY=    31.1175   YY=    29.8805   ZY=    77.7489
   XZ=   -39.4323   YZ=    65.2377   ZZ=   131.1447
   Eigenvalues:   -52.0064    30.4568   169.3451
      8  H    Isotropic =    23.1106   Anisotropy =    13.2879
   XX=    28.3374   YX=     1.5238   ZX=    -3.6492
   XY=     3.1974   YY=    22.7522   ZY=    -1.9308
   XZ=    -8.3358   YZ=    -1.1415   ZZ=    18.2422
   Eigenvalues:    15.4316    21.9309    31.9692
      9  C    Isotropic =    55.3790   Anisotropy =   174.7214
   XX=    46.1473   YX=    -2.9852   ZX=    -2.5221
   XY=     0.3554   YY=    -1.1010   ZY=    92.4715
   XZ=     0.3542   YZ=    94.8963   ZZ=   121.0906
   Eigenvalues:   -51.8546    46.1316   171.8599
     10  H    Isotropic =    24.5657   Anisotropy =     7.2078
   XX=    29.1014   YX=     0.0432   ZX=    -0.2604
   XY=     0.2834   YY=    23.2436   ZY=    -1.1035
   XZ=    -2.4306   YZ=    -2.8656   ZZ=    21.3521
   Eigenvalues:    19.9763    24.3499    29.3709
     11  C    Isotropic =    51.6147   Anisotropy =   151.0090
   XX=     2.5872   YX=    40.5226   ZX=   -25.7440
   XY=    50.8325   YY=    11.9585   ZY=    42.2021
   XZ=   -15.1508   YZ=    38.4615   ZZ=   140.2983
   Eigenvalues:   -48.2241    50.7808   152.2873
     12  H    Isotropic =    23.8484   Anisotropy =     7.2776
   XX=    26.1040   YX=     2.3348   ZX=    -0.0664
   XY=     2.3706   YY=    26.3233   ZY=    -1.9097
   XZ=     0.6248   YZ=    -1.6545   ZZ=    19.1180
   Eigenvalues:    18.6066    24.2385    28.7001
     13  C    Isotropic =    52.9284   Anisotropy =   147.0362
   XX=    51.3555   YX=    20.0327   ZX=   -13.5856
   XY=    11.2348   YY=   -33.6683   ZY=    42.7405
   XZ=    -8.2730   YZ=    40.1055   ZZ=   141.0981
   Eigenvalues:   -46.1921    54.0249   150.9526
     14  H    Isotropic =    23.9442   Anisotropy =     7.5024
   XX=    28.7155   YX=     0.5541   ZX=     1.0121
   XY=     0.4833   YY=    24.4716   ZY=    -0.8950
   XZ=     1.7659   YZ=    -0.3202   ZZ=    18.6455
   Eigenvalues:    18.3831    24.5037    28.9458
     15  C    Isotropic =    47.0832   Anisotropy =   203.5172
   XX=   -27.0916   YX=    -0.1109   ZX=   -28.6568
   XY=     4.6383   YY=    -9.2199   ZY=    28.7787
   XZ=    -9.4096   YZ=    23.2793   ZZ=   177.5610
   Eigenvalues:   -30.0660   -11.4458   182.7613
     16  C    Isotropic =    51.6831   Anisotropy =   188.9362
   XX=   -19.7367   YX=     5.0216   ZX=    16.1496
   XY=    -8.8050   YY=     1.7586   ZY=    23.2176
   XZ=   -48.8619   YZ=    24.3404   ZZ=   173.0274
   Eigenvalues:   -21.1153    -1.4759   177.6406
     17  C    Isotropic =    51.8568   Anisotropy =   148.5198
   XX=    50.7721   YX=   -23.6818   ZX=   -18.4641
   XY=   -16.9405   YY=   -41.6714   ZY=    17.8097
   XZ=   -14.4800   YZ=    11.1905   ZZ=   146.4697
   Eigenvalues:   -46.5535    51.2540   150.8700
     18  H    Isotropic =    23.8871   Anisotropy =     7.6762
   XX=    28.5371   YX=    -0.1282   ZX=     1.5525
   XY=    -0.2787   YY=    24.3320   ZY=    -0.7408
   XZ=     2.6127   YZ=    -1.5856   ZZ=    18.7922
   Eigenvalues:    18.1693    24.4874    29.0046
     19  C    Isotropic =    51.7663   Anisotropy =   148.6842
   XX=     2.3508   YX=   -45.6544   ZX=   -31.1097
   XY=   -52.9214   YY=     7.5176   ZY=    -1.8002
   XZ=   -23.6855   YZ=    -2.0343   ZZ=   145.4305
   Eigenvalues:   -46.7953    51.2050   150.8891
     20  H    Isotropic =    23.9375   Anisotropy =     7.6244
   XX=    25.5089   YX=    -2.0855   ZX=     1.5452
   XY=    -2.0408   YY=    27.3504   ZY=    -0.4943
   XZ=     2.6875   YZ=    -1.0321   ZZ=    18.9534
   Eigenvalues:    18.3269    24.4652    29.0205
     21  C    Isotropic =    47.2053   Anisotropy =   202.2944
   XX=   -13.1919   YX=    13.7851   ZX=   -43.9805
   XY=     8.3109   YY=   -19.8972   ZY=     0.1252
   XZ=   -29.8753   YZ=   -13.4280   ZZ=   174.7049
   Eigenvalues:   -29.8341   -10.6182   182.0682
     22  C    Isotropic =    51.6373   Anisotropy =   188.7174
   XX=    -0.5099   YX=     1.6301   ZX=   -16.1424
   XY=    18.6257   YY=   -15.4605   ZY=   -34.4730
   XZ=   -50.0915   YZ=    20.6205   ZZ=   170.8824
   Eigenvalues:   -21.0812    -1.4558   177.4489
     23  C    Isotropic =    52.7485   Anisotropy =   147.3596
   XX=   -22.7360   YX=   -31.9862   ZX=   -49.8421
   XY=   -23.9619   YY=    43.7963   ZY=   -16.0773
   XZ=   -44.4990   YZ=   -19.3301   ZZ=   137.1853
   Eigenvalues:   -46.7355    53.9929   150.9883
     24  H    Isotropic =    23.9643   Anisotropy =     7.5607
   XX=    24.9836   YX=    -1.6532   ZX=     1.4445
   XY=    -1.7400   YY=    28.1922   ZY=     0.0625
   XZ=     1.3535   YZ=    -0.8300   ZZ=    18.7172
   Eigenvalues:    18.4190    24.4691    29.0048
     25  C    Isotropic =    51.5471   Anisotropy =   151.4815
   XX=   -28.2326   YX=    32.8196   ZX=   -52.7701
   XY=    23.0322   YY=    45.4757   ZY=    -3.7505
   XZ=   -44.4729   YZ=   -10.3149   ZZ=   137.3982
   Eigenvalues:   -48.2470    50.3535   152.5348
     26  H    Isotropic =    23.9495   Anisotropy =     7.2423
   XX=    24.0835   YX=     1.2223   ZX=     1.5352
   XY=     1.1108   YY=    28.2010   ZY=     1.4497
   XZ=     1.9486   YZ=     0.8198   ZZ=    19.5641
   Eigenvalues:    18.9160    24.1549    28.7777
     27  C    Isotropic =    46.4205   Anisotropy =   208.7250
   XX=    -2.8829   YX=    14.2762   ZX=   -61.9139
   XY=     6.7072   YY=   -11.7520   ZY=   -41.9356
   XZ=   -61.4882   YZ=   -46.2127   ZZ=   153.8964
   Eigenvalues:   -27.6878   -18.6213   185.5705
     28  C    Isotropic =    47.8721   Anisotropy =   197.7655
   XX=    19.2428   YX=    14.7036   ZX=   -60.5074
   XY=    29.1038   YY=   -19.1880   ZY=   -56.3547
   XZ=   -63.5174   YZ=   -24.4566   ZZ=   143.5617
   Eigenvalues:   -30.5975    -5.5019   179.7158
     29  C    Isotropic =    49.4074   Anisotropy =   179.8282
   XX=    -3.7471   YX=    38.0782   ZX=   -81.0763
   XY=    36.1065   YY=    26.3315   ZY=   -23.2674
   XZ=   -78.1272   YZ=    -4.2514   ZZ=   125.6377
   Eigenvalues:   -51.8475    30.7768   169.2928
     30  H    Isotropic =    23.1375   Anisotropy =    13.4089
   XX=    22.2061   YX=    -0.8409   ZX=    -0.0618
   XY=    -2.1842   YY=    28.4163   ZY=     4.6320
   XZ=    -3.3021   YZ=     8.2051   ZZ=    18.7900
   Eigenvalues:    15.4743    21.8614    32.0767
     31  C    Isotropic =    55.2619   Anisotropy =   175.0623
   XX=    16.8311   YX=   -14.4710   ZX=   -84.4423
   XY=   -17.8936   YY=    37.6446   ZY=   -50.2556
   XZ=   -85.2660   YZ=   -54.3924   ZZ=   111.3099
   Eigenvalues:   -52.5760    46.3915   171.9700
     32  H    Isotropic =    24.5925   Anisotropy =     7.2047
   XX=    24.6585   YX=    -2.4694   ZX=     0.7458
   XY=    -2.6212   YY=    27.5120   ZY=     1.0621
   XZ=     1.0688   YZ=     3.8775   ZZ=    21.6071
   Eigenvalues:    19.9956    24.3863    29.3956
     33  C    Isotropic =    53.5116   Anisotropy =   178.2180
   XX=    61.2493   YX=    35.4513   ZX=   -42.6071
   XY=    31.8739   YY=   -37.6243   ZY=   -45.3091
   XZ=   -44.2526   YZ=   -49.7233   ZZ=   136.9100
   Eigenvalues:   -54.3749    42.5862   172.3236
     34  H    Isotropic =    24.3116   Anisotropy =     4.9117
   XX=    26.7177   YX=    -0.1479   ZX=     2.4615
   XY=    -0.3359   YY=    24.8421   ZY=     0.8639
   XZ=     2.1378   YZ=     1.5559   ZZ=    21.3750
   Eigenvalues:    20.2013    25.1475    27.5861
     35  C    Isotropic =    51.3371   Anisotropy =   156.3894
   XX=    -1.7263   YX=    53.6659   ZX=   -52.5937
   XY=    56.2664   YY=    24.8404   ZY=   -14.3702
   XZ=   -43.3243   YZ=   -19.1809   ZZ=   130.8973
   Eigenvalues:   -49.5168    47.9314   155.5967
     36  H    Isotropic =    23.8592   Anisotropy =     7.1834
   XX=    24.3290   YX=     1.2996   ZX=     2.1079
   XY=     1.2451   YY=    27.1457   ZY=     1.9534
   XZ=     1.5912   YZ=     2.8705   ZZ=    20.1029
   Eigenvalues:    18.9702    23.9593    28.6481
     37  Bq   Isotropic =     6.0494   Anisotropy =     3.6226
   XX=     6.9972   YX=    -1.2410   ZX=     0.3265
   XY=    -0.5538   YY=     7.5571   ZY=    -0.4623
   XZ=    -1.3295   YZ=     2.4446   ZZ=     3.5939
   Eigenvalues:     3.3367     6.3470     8.4644
     38  Bq   Isotropic =    26.7269   Anisotropy =    25.4304
   XX=    20.9997   YX=    -5.3690   ZX=    -6.9330
   XY=    -6.7777   YY=    21.2098   ZY=     4.4582
   XZ=   -12.5561   YZ=     1.5906   ZZ=    37.9712
   Eigenvalues:    13.7493    22.7509    43.6805
     39  Bq   Isotropic =    27.6086   Anisotropy =    28.7216
   XX=    23.6437   YX=    -4.4820   ZX=    -3.7504
   XY=    -5.5866   YY=    18.5911   ZY=     7.0541
   XZ=   -11.2776   YZ=     9.7486   ZZ=    40.5910
   Eigenvalues:    14.8409    21.2286    46.7563
     40  Bq   Isotropic =    22.6348   Anisotropy =    26.9735
   XX=    18.4433   YX=    -1.5210   ZX=    -2.7705
   XY=    -5.2717   YY=    21.8112   ZY=    11.0981
   XZ=   -15.6583   YZ=    11.9325   ZZ=    27.6497
   Eigenvalues:    10.7769    16.5103    40.6171
     41  Bq   Isotropic =    15.1135   Anisotropy =    20.9919
   XX=    12.5841   YX=    -0.6717   ZX=    -1.0214
   XY=    -5.2857   YY=    18.2496   ZY=     3.8096
   XZ=   -17.0102   YZ=    12.9334   ZZ=    14.5069
   Eigenvalues:     3.4630    12.7695    29.1082
     42  Bq   Isotropic =     5.6953   Anisotropy =    15.9229
   XX=     7.0299   YX=     0.3453   ZX=    -0.4402
   XY=    -3.7211   YY=    11.8862   ZY=     0.3100
   XZ=   -13.3883   YZ=    11.8014   ZZ=    -1.8303
   Eigenvalues:    -6.7668     7.5420    16.3106
     43  Bq   Isotropic =     0.5245   Anisotropy =    12.0290
   XX=     3.3900   YX=     0.5931   ZX=    -1.1980
   XY=    -2.3537   YY=     7.2911   ZY=    -1.7900
   XZ=   -11.4398   YZ=     6.2400   ZZ=    -9.1075
   Eigenvalues:   -11.8999     4.9297     8.5438
     44  Bq   Isotropic =    -0.3822   Anisotropy =     9.8557
   XX=     2.6211   YX=    -0.0587   ZX=    -1.9273
   XY=    -2.1019   YY=     3.8181   ZY=    -2.4254
   XZ=   -10.6331   YZ=     3.3341   ZZ=    -7.5857
   Eigenvalues:   -10.5748     3.2401     6.1883
     45  Bq   Isotropic =    -0.0622   Anisotropy =    10.5627
   XX=     2.7486   YX=    -1.1606   ZX=    -2.2360
   XY=    -2.7156   YY=     1.9370   ZY=    -1.3505
   XZ=    -9.4272   YZ=     3.9695   ZZ=    -4.8722
   Eigenvalues:    -8.0334     0.8672     6.9796
     46  Bq   Isotropic =    -0.1718   Anisotropy =    10.7854
   XX=     2.2562   YX=    -2.2176   ZX=    -1.6832
   XY=    -3.5218   YY=     1.8937   ZY=     0.1902
   XZ=    -6.7416   YZ=     5.1290   ZZ=    -4.6654
   Eigenvalues:    -6.8420    -0.6920     7.0184
     47  Bq   Isotropic =    -0.6109   Anisotropy =     9.4301
   XX=     1.2288   YX=    -2.3560   ZX=    -0.7528
   XY=    -3.3555   YY=     2.3680   ZY=     0.4603
   XZ=    -3.8043   YZ=     4.2678   ZZ=    -5.4295
   Eigenvalues:    -6.4061    -1.1025     5.6758
     48  Bq   Isotropic =    26.4380   Anisotropy =    32.6797
   XX=    12.8682   YX=    -5.3962   ZX=    -7.4078
   XY=    -2.6652   YY=    23.5310   ZY=     7.4221
   XZ=    -3.3739   YZ=    12.2057   ZZ=    42.9149
   Eigenvalues:    11.3409    19.7487    48.2245
     49  Bq   Isotropic =    19.8854   Anisotropy =    29.1244
   XX=    10.4313   YX=    -4.2055   ZX=    -1.4521
   XY=    -2.1432   YY=    14.3221   ZY=     9.3685
   XZ=    -1.6472   YZ=    10.9109   ZZ=    34.9028
   Eigenvalues:     7.8376    12.5169    39.3017
     50  Bq   Isotropic =    19.1873   Anisotropy =    29.9572
   XX=     9.6078   YX=     0.7018   ZX=    -3.4671
   XY=     0.6035   YY=    15.6412   ZY=    11.6759
   XZ=    -8.4743   YZ=    11.6136   ZZ=    32.3129
   Eigenvalues:     5.9088    12.4942    39.1588
     51  Bq   Isotropic =    17.5868   Anisotropy =    27.8428
   XX=     9.4063   YX=    -0.6232   ZX=    -3.1111
   XY=    -2.0481   YY=    18.8063   ZY=     8.1046
   XZ=   -14.9514   YZ=    15.3014   ZZ=    24.5478
   Eigenvalues:     3.7966    12.8151    36.1487
     52  Bq   Isotropic =     8.9672   Anisotropy =    19.6738
   XX=     6.9579   YX=     0.7414   ZX=    -1.4421
   XY=    -2.6604   YY=    16.0310   ZY=     1.7449
   XZ=   -17.1989   YZ=    14.3295   ZZ=     3.9126
   Eigenvalues:    -5.5351    10.3536    22.0830
     53  Bq   Isotropic =     2.8656   Anisotropy =    14.1754
   XX=     4.6670   YX=     1.1117   ZX=    -2.5384
   XY=    -2.3628   YY=     9.7960   ZY=    -2.0848
   XZ=   -17.1397   YZ=     7.8625   ZZ=    -5.8660
   Eigenvalues:   -11.9749     8.2559    12.3159
     54  Bq   Isotropic =     2.0642   Anisotropy =    13.2884
   XX=     4.0795   YX=    -0.1946   ZX=    -2.6994
   XY=    -2.9758   YY=     5.9498   ZY=    -2.4347
   XZ=   -15.5479   YZ=     5.1250   ZZ=    -3.8366
   Eigenvalues:    -9.8279     5.0974    10.9232
     55  Bq   Isotropic =     2.4009   Anisotropy =    13.2445
   XX=     3.9787   YX=    -1.2501   ZX=    -2.1048
   XY=    -3.5074   YY=     4.0859   ZY=    -0.9152
   XZ=   -12.3982   YZ=     7.2596   ZZ=    -0.8619
   Eigenvalues:    -6.2354     2.2076    11.2306
     56  Bq   Isotropic =     1.2545   Anisotropy =    13.0889
   XX=     2.9757   YX=    -2.1174   ZX=    -1.2362
   XY=    -3.8933   YY=     3.9950   ZY=     1.1787
   XZ=    -7.6589   YZ=     8.9575   ZZ=    -3.2071
   Eigenvalues:    -6.6555     0.4386     9.9805
     57  Bq   Isotropic =    -0.2148   Anisotropy =    11.3093
   XX=     1.4566   YX=    -2.2113   ZX=    -0.4808
   XY=    -3.3940   YY=     4.0901   ZY=     1.1278
   XZ=    -3.9285   YZ=     6.5758   ZZ=    -6.1911
   Eigenvalues:    -7.6506    -0.3186     7.3247
     58  Bq   Isotropic =    20.0845   Anisotropy =    28.4674
   XX=    13.9542   YX=    -2.4167   ZX=    -1.1935
   XY=    -1.2185   YY=    12.4840   ZY=     8.0870
   XZ=    -2.0054   YZ=    15.0127   ZZ=    33.8153
   Eigenvalues:     7.2681    13.9227    39.0628
     59  Bq   Isotropic =    12.5068   Anisotropy =    24.4307
   XX=     4.6069   YX=    -1.9715   ZX=    -0.4852
   XY=    -1.5178   YY=     8.1457   ZY=     8.8761
   XZ=    -3.0424   YZ=     8.7567   ZZ=    24.7677
   Eigenvalues:     3.4641     5.2622    28.7939
     60  Bq   Isotropic =    13.7284   Anisotropy =    27.4037
   XX=     5.1603   YX=    -0.6340   ZX=    -0.8051
   XY=    -0.8619   YY=     7.6432   ZY=     9.4897
   XZ=    -6.1753   YZ=     7.8590   ZZ=    28.3816
   Eigenvalues:     4.0994     5.0882    31.9975
     61  Bq   Isotropic =    17.6214   Anisotropy =    29.7427
   XX=     8.8770   YX=    -0.1784   ZX=    -0.1117
   XY=    -1.5533   YY=    13.9385   ZY=    10.5801
   XZ=   -11.1082   YZ=    13.4068   ZZ=    30.0487
   Eigenvalues:     5.8575     9.5568    37.4499
     62  Bq   Isotropic =    14.5237   Anisotropy =    22.7195
   XX=     8.3694   YX=     1.7240   ZX=    -0.4990
   XY=    -1.3751   YY=    17.1918   ZY=     4.0170
   XZ=   -17.4087   YZ=    15.9812   ZZ=    18.0101
   Eigenvalues:     0.8926    13.0085    29.6701
     63  Bq   Isotropic =     9.3963   Anisotropy =    18.7727
   XX=     6.3696   YX=     1.7193   ZX=    -3.1246
   XY=    -1.8894   YY=    12.3834   ZY=     0.2649
   XZ=   -19.6420   YZ=    12.1686   ZZ=     9.4358
   Eigenvalues:    -4.5947    10.8721    21.9114
     64  Bq   Isotropic =     8.2672   Anisotropy =    18.8352
   XX=     6.4736   YX=    -0.0218   ZX=    -3.4886
   XY=    -3.2095   YY=    10.2739   ZY=     0.5051
   XZ=   -18.3784   YZ=    10.6023   ZZ=     8.0541
   Eigenvalues:    -4.2067     8.1844    20.8240
     65  Bq   Isotropic =     7.0818   Anisotropy =    17.2522
   XX=     7.1513   YX=    -1.3029   ZX=    -2.0013
   XY=    -3.8647   YY=     8.4525   ZY=     0.3655
   XZ=   -13.8369   YZ=    12.9285   ZZ=     5.6418
   Eigenvalues:    -2.7108     5.3730    18.5833
     66  Bq   Isotropic =     3.2497   Anisotropy =    15.4541
   XX=     5.2281   YX=    -2.0346   ZX=    -0.8069
   XY=    -3.7960   YY=     6.9827   ZY=     1.5546
   XZ=    -7.7018   YZ=    12.9918   ZZ=    -2.4617
   Eigenvalues:    -6.9140     3.1107    13.5524
     67  Bq   Isotropic =     0.2571   Anisotropy =    12.9929
   XX=     2.5084   YX=    -2.0982   ZX=    -0.3824
   XY=    -2.9734   YY=     5.8383   ZY=     1.2082
   XZ=    -4.0486   YZ=     8.4720   ZZ=    -7.5755
   Eigenvalues:    -9.2967     1.1490     8.9190
     68  Bq   Isotropic =    22.8634   Anisotropy =    28.8497
   XX=    12.4957   YX=    -2.0316   ZX=    -0.2764
   XY=    -2.8939   YY=    18.7719   ZY=     8.0620
   XZ=    -4.6948   YZ=    12.0714   ZZ=    37.3228
   Eigenvalues:    11.5742    14.9195    42.0966
     69  Bq   Isotropic =    13.6727   Anisotropy =    26.0743
   XX=     4.5379   YX=    -1.4980   ZX=    -2.2594
   XY=    -1.7812   YY=     9.5477   ZY=     9.1908
   XZ=    -6.5532   YZ=     7.3040   ZZ=    26.9325
   Eigenvalues:     3.7003     6.2623    31.0556
     70  Bq   Isotropic =    14.3737   Anisotropy =    29.4278
   XX=     4.5548   YX=    -1.6820   ZX=    -1.9781
   XY=    -2.0056   YY=     8.0229   ZY=    10.0508
   XZ=    -7.0976   YZ=     6.2425   ZZ=    30.5435
   Eigenvalues:     3.6720     5.4569    33.9922
     71  Bq   Isotropic =    18.8486   Anisotropy =    33.9676
   XX=     8.1679   YX=    -0.6910   ZX=    -2.5739
   XY=    -0.7050   YY=    12.9365   ZY=    11.9322
   XZ=    -8.1831   YZ=    12.1712   ZZ=    35.4414
   Eigenvalues:     6.0311     9.0209    41.4937
     72  Bq   Isotropic =    17.6696   Anisotropy =    29.6513
   XX=     7.0961   YX=    -0.5963   ZX=    -2.6289
   XY=    -0.5249   YY=    16.0692   ZY=     6.6919
   XZ=    -9.4894   YZ=    16.4371   ZZ=    29.8434
   Eigenvalues:     4.7892    10.7824    37.4371
     73  Bq   Isotropic =    13.8418   Anisotropy =    25.1171
   XX=     4.7719   YX=     0.6979   ZX=    -2.3400
   XY=    -0.0835   YY=    12.6138   ZY=     3.4888
   XZ=   -10.8936   YZ=    15.1477   ZZ=    24.1397
   Eigenvalues:     1.5548     9.3841    30.5865
     74  Bq   Isotropic =    13.6027   Anisotropy =    24.8327
   XX=     6.0549   YX=     0.5489   ZX=    -4.0756
   XY=    -0.6025   YY=    12.7570   ZY=     3.7541
   XZ=   -13.2457   YZ=    14.9743   ZZ=    21.9962
   Eigenvalues:     0.7198     9.9305    30.1578
     75  Bq   Isotropic =    12.5626   Anisotropy =    23.2673
   XX=     8.8613   YX=    -2.0229   ZX=    -3.6085
   XY=    -3.1836   YY=    13.2401   ZY=     2.8094
   XZ=   -12.8365   YZ=    17.7553   ZZ=    15.5865
   Eigenvalues:     1.4441     8.1697    28.0742
     76  Bq   Isotropic =     6.3585   Anisotropy =    19.3958
   XX=     6.9249   YX=    -2.7748   ZX=    -1.5644
   XY=    -3.4672   YY=    11.4735   ZY=     2.3273
   XZ=    -8.7888   YZ=    16.5599   ZZ=     0.6771
   Eigenvalues:    -5.5566     5.3431    19.2891
     77  Bq   Isotropic =     1.3291   Anisotropy =    15.0275
   XX=     3.4775   YX=    -2.3521   ZX=    -1.0485
   XY=    -2.2330   YY=     8.0710   ZY=     1.1330
   XZ=    -5.6525   YZ=    10.4212   ZZ=    -7.5612
   Eigenvalues:    -9.9358     2.5757    11.3474
     78  Bq   Isotropic =    27.4065   Anisotropy =    29.1411
   XX=    15.5745   YX=     6.7559   ZX=     5.4187
   XY=     5.2344   YY=    21.7457   ZY=     6.4402
   XZ=    -0.5528   YZ=     5.5539   ZZ=    44.8993
   Eigenvalues:    11.8810    23.5046    46.8339
     79  Bq   Isotropic =    20.3500   Anisotropy =    28.9664
   XX=    10.5961   YX=     1.2141   ZX=    -0.8147
   XY=     1.1154   YY=    13.7624   ZY=    10.5657
   XZ=    -3.9053   YZ=     6.5719   ZZ=    36.6914
   Eigenvalues:     8.8357    12.5534    39.6609
     80  Bq   Isotropic =    19.1069   Anisotropy =    30.5039
   XX=     6.7777   YX=    -0.8559   ZX=     0.8104
   XY=    -0.1654   YY=    14.0081   ZY=    11.9228
   XZ=    -1.5132   YZ=     5.2528   ZZ=    36.5348
   Eigenvalues:     6.7386    11.1392    39.4428
     81  Bq   Isotropic =    19.5182   Anisotropy =    33.5026
   XX=     6.8208   YX=     0.7948   ZX=    -0.4410
   XY=     2.3465   YY=    14.1272   ZY=    10.8157
   XZ=    -0.4462   YZ=    10.8839   ZZ=    37.6067
   Eigenvalues:     6.1188    10.5826    41.8533
     82  Bq   Isotropic =    14.8796   Anisotropy =    28.5140
   XX=     3.8604   YX=     0.0611   ZX=    -1.3440
   XY=     2.1623   YY=    12.6454   ZY=     7.6691
   XZ=    -1.0970   YZ=    14.4202   ZZ=    28.1330
   Eigenvalues:     3.2008     7.5490    33.8889
     83  Bq   Isotropic =    11.5498   Anisotropy =    24.1194
   XX=     1.9389   YX=     0.2202   ZX=    -0.7215
   XY=     1.6745   YY=     9.3377   ZY=     4.4161
   XZ=    -2.8932   YZ=    13.0826   ZZ=    23.3729
   Eigenvalues:     1.2027     5.8174    27.6294
     84  Bq   Isotropic =    13.0847   Anisotropy =    25.1547
   XX=     4.0588   YX=    -0.0763   ZX=    -1.4140
   XY=     0.6548   YY=     9.5534   ZY=     3.9304
   XZ=    -5.4867   YZ=    13.5988   ZZ=    25.6418
   Eigenvalues:     2.7776     6.6220    29.8545
     85  Bq   Isotropic =    15.3981   Anisotropy =    26.2775
   XX=     8.3701   YX=    -1.9969   ZX=    -0.8893
   XY=    -1.8970   YY=    13.7017   ZY=     5.3455
   XZ=    -7.1827   YZ=    18.9113   ZZ=    24.1224
   Eigenvalues:     5.5424     7.7354    32.9164
     86  Bq   Isotropic =    10.3220   Anisotropy =    21.1466
   XX=     7.3796   YX=    -1.8230   ZX=     0.0853
   XY=    -1.1109   YY=    14.9996   ZY=     3.3236
   XZ=    -7.5951   YZ=    19.6484   ZZ=     8.5868
   Eigenvalues:    -0.7137     7.2599    24.4197
     87  Bq   Isotropic =     3.7291   Anisotropy =    15.2622
   XX=     3.9042   YX=    -1.5233   ZX=    -1.1353
   XY=    -0.3321   YY=     9.8746   ZY=     1.0489
   XZ=    -6.8157   YZ=    13.5514   ZZ=    -2.5914
   Eigenvalues:    -6.9428     4.2262    13.9039
     88  Bq   Isotropic =    19.2367   Anisotropy =    10.2362
   XX=    17.5469   YX=    -2.4907   ZX=    -3.1165
   XY=     5.1289   YY=    14.9852   ZY=     1.8671
   XZ=     8.2079   YZ=    -4.9554   ZZ=    25.1781
   Eigenvalues:    13.8769    17.7724    26.0609
     89  Bq   Isotropic =    17.5182   Anisotropy =    15.9664
   XX=    15.7051   YX=     1.2385   ZX=     1.0250
   XY=     6.5514   YY=    11.6978   ZY=     6.5590
   XZ=     8.8717   YZ=    -1.6699   ZZ=    25.1518
   Eigenvalues:     9.3020    15.0903    28.1625
     90  Bq   Isotropic =    17.0248   Anisotropy =    18.3579
   XX=    11.3836   YX=     2.1299   ZX=     0.3808
   XY=     7.4073   YY=    12.9623   ZY=     9.2443
   XZ=     9.0791   YZ=    -2.9829   ZZ=    26.7286
   Eigenvalues:     7.1878    14.6232    29.2634
     91  Bq   Isotropic =    16.5282   Anisotropy =    24.1780
   XX=     8.5978   YX=     1.7378   ZX=    -0.9616
   XY=     6.1057   YY=    10.5291   ZY=     8.0242
   XZ=     4.8713   YZ=     4.5452   ZZ=    30.4578
   Eigenvalues:     5.2600    11.6777    32.6469
     92  Bq   Isotropic =    12.0191   Anisotropy =    23.6126
   XX=     4.1921   YX=     1.0063   ZX=    -1.7369
   XY=     4.0538   YY=     8.1400   ZY=     7.3630
   XZ=    -0.4593   YZ=    10.4340   ZZ=    23.7250
   Eigenvalues:     1.3901     6.9062    27.7608
     93  Bq   Isotropic =     9.8773   Anisotropy =    22.2981
   XX=     2.3902   YX=    -0.0916   ZX=    -1.6052
   XY=     2.0502   YY=     6.1253   ZY=     5.1659
   XZ=    -2.9593   YZ=    10.9121   ZZ=    21.1164
   Eigenvalues:     0.6324     4.2569    24.7427
     94  Bq   Isotropic =    11.9064   Anisotropy =    24.7150
   XX=     5.1302   YX=    -1.2304   ZX=    -0.9052
   XY=     0.3617   YY=     6.0613   ZY=     4.9572
   XZ=    -3.4051   YZ=    13.0254   ZZ=    24.5278
   Eigenvalues:     2.3425     4.9936    28.3831
     95  Bq   Isotropic =    15.0683   Anisotropy =    26.8512
   XX=    10.1142   YX=    -2.1419   ZX=     0.5020
   XY=    -0.7093   YY=    10.7929   ZY=     7.6723
   XZ=    -2.1087   YZ=    19.8606   ZZ=    24.2980
   Eigenvalues:     2.1342    10.1017    32.9691
     96  Bq   Isotropic =    11.7194   Anisotropy =    20.4396
   XX=     8.9593   YX=    -1.5027   ZX=     1.6726
   XY=     0.3705   YY=    13.9030   ZY=     3.2691
   XZ=    -0.9801   YZ=    21.1670   ZZ=    12.2959
   Eigenvalues:     0.8048     9.0076    25.3458
     97  Bq   Isotropic =     5.6249   Anisotropy =    14.2538
   XX=     4.3346   YX=    -0.7447   ZX=     0.9054
   XY=     0.8452   YY=     9.2531   ZY=     0.6515
   XZ=    -1.5204   YZ=    16.0247   ZZ=     3.2869
   Eigenvalues:    -2.5970     4.3442    15.1274
     98  Bq   Isotropic =     5.9738   Anisotropy =     8.5356
   XX=     8.0104   YX=    -2.1782   ZX=    -1.5610
   XY=     6.6725   YY=     9.2049   ZY=    -1.4285
   XZ=     6.7172   YZ=    -8.0178   ZZ=     0.7059
   Eigenvalues:    -2.4291     8.6863    11.6642
     99  Bq   Isotropic =     3.6782   Anisotropy =    13.3337
   XX=     9.4702   YX=     1.8042   ZX=     1.3564
   XY=     8.7198   YY=     3.3253   ZY=    -2.1119
   XZ=     8.9451   YZ=   -12.7510   ZZ=    -1.7608
   Eigenvalues:    -9.8112     8.2785    12.5674
    100  Bq   Isotropic =     6.7452   Anisotropy =    10.5669
   XX=     8.3231   YX=     3.5588   ZX=    -0.7835
   XY=     9.8093   YY=     3.5454   ZY=     0.9321
   XZ=     8.0249   YZ=   -14.7928   ZZ=     8.3670
   Eigenvalues:    -5.5107    11.9564    13.7898
    101  Bq   Isotropic =    11.9289   Anisotropy =    17.3638
   XX=     6.9480   YX=     2.5305   ZX=    -1.7606
   XY=     7.6185   YY=     5.3657   ZY=     5.2342
   XZ=     3.0278   YZ=    -4.9190   ZZ=    23.4731
   Eigenvalues:     1.0173    11.2648    23.5048
    102  Bq   Isotropic =    12.2548   Anisotropy =    23.5094
   XX=     4.7872   YX=     1.9932   ZX=    -2.8927
   XY=     5.3428   YY=     6.1177   ZY=     6.9830
   XZ=    -3.2960   YZ=     5.8511   ZZ=    25.8593
   Eigenvalues:     0.0327     8.8039    27.9277
    103  Bq   Isotropic =    11.9587   Anisotropy =    25.5356
   XX=     4.5427   YX=    -0.4249   ZX=    -3.1823
   XY=     2.2955   YY=     6.0668   ZY=     6.4070
   XZ=    -5.4187   YZ=    10.3790   ZZ=    25.2664
   Eigenvalues:     1.0263     5.8673    28.9824
    104  Bq   Isotropic =    13.6880   Anisotropy =    26.7150
   XX=     6.8401   YX=    -2.1484   ZX=    -1.0866
   XY=     0.9984   YY=     7.5098   ZY=     5.8161
   XZ=    -3.5295   YZ=    15.0062   ZZ=    26.7140
   Eigenvalues:     2.9062     6.6597    31.4980
    105  Bq   Isotropic =    13.3827   Anisotropy =    24.9883
   XX=    10.0083   YX=    -2.1716   ZX=     0.8334
   XY=     1.7864   YY=    10.0823   ZY=     6.5472
   XZ=     1.2308   YZ=    21.6291   ZZ=    20.0574
   Eigenvalues:     0.0678    10.0387    30.0415
    106  Bq   Isotropic =     7.6982   Anisotropy =    18.5204
   XX=     7.8274   YX=    -2.0529   ZX=     2.4513
   XY=     1.1243   YY=    10.7626   ZY=     3.0569
   XZ=     5.8202   YZ=    20.1494   ZZ=     4.5046
   Eigenvalues:    -5.3616     8.4111    20.0452
    107  Bq   Isotropic =     2.9643   Anisotropy =    13.3182
   XX=     4.2693   YX=    -0.7927   ZX=     3.5484
   XY=     0.9460   YY=     6.8537   ZY=     0.5357
   XZ=     5.8936   YZ=    14.2718   ZZ=    -2.2302
   Eigenvalues:    -7.7910     4.8408    11.8431
    108  Bq   Isotropic =    -0.1759   Anisotropy =    13.2872
   XX=     6.0593   YX=     1.3314   ZX=     0.4977
   XY=     6.9327   YY=     0.6611   ZY=    -2.6170
   XZ=     0.2944   YZ=    -8.4262   ZZ=    -7.2483
   Eigenvalues:   -10.4074     1.1973     8.6822
    109  Bq   Isotropic =    -1.5799   Anisotropy =    15.3124
   XX=     5.9331   YX=     1.8814   ZX=     0.8110
   XY=     6.4671   YY=    -1.9886   ZY=    -4.2183
   XZ=     0.3412   YZ=   -14.4632   ZZ=    -8.6841
   Eigenvalues:   -15.6500     2.2820     8.6284
    110  Bq   Isotropic =     2.1162   Anisotropy =    14.1614
   XX=     6.9887   YX=     2.4503   ZX=     0.4689
   XY=     6.4502   YY=    -2.1166   ZY=    -2.1709
   XZ=     0.6535   YZ=   -18.2612   ZZ=     1.4765
   Eigenvalues:   -11.4740     6.2654    11.5572
    111  Bq   Isotropic =    10.0862   Anisotropy =    17.5509
   XX=     7.8495   YX=     2.7303   ZX=     0.0721
   XY=     6.4392   YY=     1.8079   ZY=     2.5888
   XZ=    -0.2063   YZ=   -11.9031   ZZ=    20.6010
   Eigenvalues:    -1.4283     9.9000    21.7867
    112  Bq   Isotropic =    14.9407   Anisotropy =    26.6962
   XX=     7.3574   YX=     2.7544   ZX=    -1.9254
   XY=     5.8595   YY=     5.1498   ZY=     4.8234
   XZ=    -2.7588   YZ=     0.6875   ZZ=    32.3151
   Eigenvalues:     1.3854    10.6986    32.7382
    113  Bq   Isotropic =    16.6644   Anisotropy =    30.5603
   XX=     8.3293   YX=     0.2763   ZX=    -3.3784
   XY=     3.6034   YY=     7.4695   ZY=     7.1562
   XZ=    -3.5120   YZ=    10.2252   ZZ=    34.1944
   Eigenvalues:     3.2358     9.7195    37.0379
    114  Bq   Isotropic =    17.2038   Anisotropy =    27.1893
   XX=    11.2793   YX=    -2.0422   ZX=    -1.0106
   XY=     2.6997   YY=    10.8600   ZY=     5.6921
   XZ=    -1.2122   YZ=    18.1760   ZZ=    29.4722
   Eigenvalues:     4.9355    11.3460    35.3300
    115  Bq   Isotropic =    11.3862   Anisotropy =    18.7331
   XX=    12.9958   YX=    -2.0702   ZX=     2.1952
   XY=     2.9368   YY=     9.2423   ZY=     2.3723
   XZ=     3.0284   YZ=    23.1532   ZZ=    11.9205
   Eigenvalues:    -2.3853    12.6689    23.8749
    116  Bq   Isotropic =     3.0699   Anisotropy =    15.6738
   XX=     8.9447   YX=    -1.5622   ZX=     3.4999
   XY=     1.7283   YY=     7.2185   ZY=     1.4654
   XZ=     6.0409   YZ=    18.1221   ZZ=    -6.9534
   Eigenvalues:   -12.7795     8.4702    13.5191
    117  Bq   Isotropic =    -0.3972   Anisotropy =    12.2377
   XX=     5.2601   YX=    -0.8280   ZX=     3.4278
   XY=     1.0023   YY=     4.5469   ZY=     0.1877
   XZ=     5.7156   YZ=    11.0541   ZZ=   -10.9985
   Eigenvalues:   -13.8038     4.8510     7.7613
    118  Bq   Isotropic =    -0.6462   Anisotropy =    13.2324
   XX=     5.1804   YX=     0.8890   ZX=    -0.8759
   XY=     4.8004   YY=    -2.8796   ZY=    -2.8252
   XZ=    -5.8368   YZ=    -7.8029   ZZ=    -4.2395
   Eigenvalues:    -8.9500    -1.1641     8.1754
    119  Bq   Isotropic =    -0.4357   Anisotropy =    14.8613
   XX=     5.3153   YX=     0.9354   ZX=    -0.8335
   XY=     4.2687   YY=    -3.2893   ZY=    -3.3736
   XZ=    -6.6560   YZ=   -12.4308   ZZ=    -3.3330
   Eigenvalues:   -11.2567     0.4779     9.4719
    120  Bq   Isotropic =     3.2289   Anisotropy =    15.5929
   XX=     7.0444   YX=     0.8873   ZX=    -0.9410
   XY=     3.8808   YY=    -3.2187   ZY=    -1.6617
   XZ=    -5.9647   YZ=   -15.3395   ZZ=     5.8609
   Eigenvalues:    -8.3209     4.3833    13.6241
    121  Bq   Isotropic =     9.8621   Anisotropy =    18.9822
   XX=     8.3078   YX=     0.6701   ZX=    -1.2078
   XY=     3.8612   YY=     0.0230   ZY=     1.8660
   XZ=    -2.8489   YZ=   -10.4950   ZZ=    21.2555
   Eigenvalues:    -1.1844     8.2539    22.5170
    122  Bq   Isotropic =    13.9406   Anisotropy =    25.5593
   XX=     7.7441   YX=     0.9812   ZX=    -1.3184
   XY=     4.2885   YY=     3.1334   ZY=     2.9152
   XZ=     1.0263   YZ=    -0.9240   ZZ=    30.9444
   Eigenvalues:     1.9055     8.9363    30.9802
    123  Bq   Isotropic =    15.7505   Anisotropy =    28.2374
   XX=     8.2430   YX=     2.0321   ZX=    -3.0256
   XY=     5.5646   YY=     5.5919   ZY=     4.5715
   XZ=     2.7147   YZ=     6.9491   ZZ=    33.4168
   Eigenvalues:     2.1336    10.5425    34.5755
    124  Bq   Isotropic =    17.4490   Anisotropy =    25.0203
   XX=    11.8182   YX=     0.0166   ZX=    -5.5529
   XY=     4.8484   YY=     9.7319   ZY=     3.4479
   XZ=     1.1119   YZ=    14.3664   ZZ=    30.7968
   Eigenvalues:     5.0808    13.1370    34.1291
    125  Bq   Isotropic =    13.0909   Anisotropy =    15.7746
   XX=    14.9972   YX=    -3.2608   ZX=    -2.1087
   XY=     0.9027   YY=    10.1241   ZY=     1.2985
   XZ=    -0.2617   YZ=    20.6295   ZZ=    14.1515
   Eigenvalues:     0.9888    14.6766    23.6073
    126  Bq   Isotropic =     3.9940   Anisotropy =    12.1723
   XX=    10.9411   YX=    -2.1865   ZX=     1.2994
   XY=     0.9400   YY=     8.3050   ZY=     0.5595
   XZ=     0.5882   YZ=    16.5225   ZZ=    -7.2642
   Eigenvalues:   -11.0924    10.9655    12.1088
    127  Bq   Isotropic =    -0.0297   Anisotropy =    11.0422
   XX=     7.2697   YX=    -1.5600   ZX=     0.9586
   XY=     0.8355   YY=     4.6963   ZY=    -0.2705
   XZ=     1.0782   YZ=     9.7702   ZZ=   -12.0550
   Eigenvalues:   -13.3643     5.9435     7.3318
    128  Bq   Isotropic =     1.4438   Anisotropy =    14.3283
   XX=     3.9931   YX=    -0.0039   ZX=    -2.3436
   XY=     3.0907   YY=    -2.9693   ZY=    -3.0370
   XZ=    -9.0813   YZ=    -7.2924   ZZ=     3.3076
   Eigenvalues:    -6.1571    -0.5074    10.9960
    129  Bq   Isotropic =     2.9894   Anisotropy =    16.8369
   XX=     5.0774   YX=     0.1389   ZX=    -2.1632
   XY=     3.0268   YY=    -2.8196   ZY=    -2.8747
   XZ=    -9.9678   YZ=   -10.2909   ZZ=     6.7103
   Eigenvalues:    -6.3793     1.1334    14.2140
    130  Bq   Isotropic =     6.5786   Anisotropy =    19.5458
   XX=     7.0706   YX=    -0.1380   ZX=    -2.0818
   XY=     2.6990   YY=    -3.0833   ZY=    -1.0793
   XZ=    -8.4686   YZ=   -10.0136   ZZ=    15.7485
   Eigenvalues:    -4.5977     4.7243    19.6092
    131  Bq   Isotropic =     9.6654   Anisotropy =    21.7098
   XX=     7.2321   YX=    -0.6107   ZX=    -1.9331
   XY=     2.4737   YY=    -1.9019   ZY=     2.4040
   XZ=    -3.6246   YZ=    -3.3852   ZZ=    23.6659
   Eigenvalues:    -1.9977     6.8552    24.1386
    132  Bq   Isotropic =     9.9674   Anisotropy =    21.8135
   XX=     5.5604   YX=    -0.0467   ZX=    -1.4992
   XY=     2.9822   YY=     0.0807   ZY=     2.8790
   XZ=     1.1492   YZ=     2.0492   ZZ=    24.2612
   Eigenvalues:    -0.5267     5.9192    24.5097
    133  Bq   Isotropic =    10.6872   Anisotropy =    21.9414
   XX=     5.4154   YX=     1.8048   ZX=    -2.3127
   XY=     4.6493   YY=     1.6462   ZY=     1.3632
   XZ=     3.4628   YZ=     3.7048   ZZ=    24.9999
   Eigenvalues:    -0.3527     7.0994    25.3148
    134  Bq   Isotropic =    15.2247   Anisotropy =    23.8880
   XX=    10.0393   YX=     1.0047   ZX=    -4.1424
   XY=     3.7731   YY=     5.3072   ZY=     1.9325
   XZ=     2.8060   YZ=     7.2714   ZZ=    30.3278
   Eigenvalues:     3.5481    10.9760    31.1501
    135  Bq   Isotropic =    18.5026   Anisotropy =    20.8248
   XX=    16.3294   YX=    -2.2291   ZX=    -1.6518
   XY=    -0.2272   YY=    12.8578   ZY=     4.9779
   XZ=     0.5323   YZ=    16.6154   ZZ=    26.3205
   Eigenvalues:     6.7982    16.3237    32.3858
    136  Bq   Isotropic =    11.0899   Anisotropy =    10.1718
   XX=    13.5176   YX=    -0.7636   ZX=     0.4334
   XY=     2.6772   YY=    13.3965   ZY=    -1.4422
   XZ=    -1.7367   YZ=    15.6843   ZZ=     6.3557
   Eigenvalues:     1.8364    13.5623    17.8712
    137  Bq   Isotropic =     5.7222   Anisotropy =     8.2672
   XX=    10.3396   YX=    -1.7763   ZX=    -1.7234
   XY=     1.3457   YY=     7.5617   ZY=    -1.2703
   XZ=    -2.1198   YZ=    10.9991   ZZ=    -0.7345
   Eigenvalues:    -3.1829     9.1159    11.2337
 End of Minotr F.D. properties file   721 does not exist.
 End of Minotr F.D. properties file   722 does not exist.
 End of Minotr F.D. properties file   788 does not exist.
 Hyperfine terms turned off by default for NAtoms > 100.

 **********************************************************************

            Population analysis using the SCF density.

 **********************************************************************

 Alpha  occ. eigenvalues --  -10.19519 -10.19478 -10.19029 -10.19029 -10.18896
 Alpha  occ. eigenvalues --  -10.18895 -10.18706 -10.18705 -10.17975 -10.17938
 Alpha  occ. eigenvalues --  -10.17937 -10.17904 -10.17858 -10.17858 -10.17744
 Alpha  occ. eigenvalues --  -10.17743 -10.17670 -10.17670 -10.17548 -10.17548
 Alpha  occ. eigenvalues --  -10.17417 -10.17416  -0.90320  -0.88119  -0.85937
 Alpha  occ. eigenvalues --   -0.83160  -0.80702  -0.79527  -0.76956  -0.75590
 Alpha  occ. eigenvalues --   -0.74411  -0.72712  -0.71872  -0.64912  -0.64545
 Alpha  occ. eigenvalues --   -0.62214  -0.61768  -0.61707  -0.58417  -0.55988
 Alpha  occ. eigenvalues --   -0.53829  -0.53378  -0.50936  -0.50526  -0.49905
 Alpha  occ. eigenvalues --   -0.47316  -0.47011  -0.45836  -0.44023  -0.43956
 Alpha  occ. eigenvalues --   -0.43861  -0.43232  -0.42654  -0.42235  -0.41022
 Alpha  occ. eigenvalues --   -0.40605  -0.39905  -0.39348  -0.37595  -0.37171
 Alpha  occ. eigenvalues --   -0.36929  -0.35577  -0.35098  -0.33983  -0.33391
 Alpha  occ. eigenvalues --   -0.32930  -0.30649  -0.29657  -0.28532  -0.26104
 Alpha  occ. eigenvalues --   -0.23798  -0.21944  -0.21480
 Alpha virt. eigenvalues --   -0.06190  -0.06048  -0.03588  -0.01474   0.00045
 Alpha virt. eigenvalues --    0.00403   0.00776   0.00822   0.01789   0.01908
 Alpha virt. eigenvalues --    0.02260   0.03054   0.03115   0.03427   0.03970
 Alpha virt. eigenvalues --    0.04148   0.05033   0.05261   0.05403   0.05895
 Alpha virt. eigenvalues --    0.06030   0.06849   0.07148   0.07594   0.07804
 Alpha virt. eigenvalues --    0.08569   0.08924   0.09463   0.09496   0.10354
 Alpha virt. eigenvalues --    0.10570   0.10732   0.11408   0.11748   0.12306
 Alpha virt. eigenvalues --    0.12874   0.12935   0.13130   0.13385   0.13945
 Alpha virt. eigenvalues --    0.14237   0.14391   0.14830   0.15470   0.15971
 Alpha virt. eigenvalues --    0.16370   0.16695   0.16750   0.17157   0.17459
 Alpha virt. eigenvalues --    0.17466   0.17772   0.18102   0.18395   0.18613
 Alpha virt. eigenvalues --    0.19142   0.19181   0.19441   0.19725   0.20002
 Alpha virt. eigenvalues --    0.20054   0.20484   0.20789   0.20847   0.20953
 Alpha virt. eigenvalues --    0.21459   0.21966   0.22313   0.22670   0.22674
 Alpha virt. eigenvalues --    0.23072   0.23288   0.23358   0.23739   0.24176
 Alpha virt. eigenvalues --    0.24292   0.24631   0.24928   0.24965   0.25616
 Alpha virt. eigenvalues --    0.25621   0.26241   0.26401   0.26560   0.27084
 Alpha virt. eigenvalues --    0.27711   0.27773   0.28033   0.28455   0.29035
 Alpha virt. eigenvalues --    0.29404   0.29706   0.29857   0.30078   0.30253
 Alpha virt. eigenvalues --    0.30266   0.30649   0.31525   0.31636   0.31758
 Alpha virt. eigenvalues --    0.32239   0.32483   0.32704   0.33195   0.33327
 Alpha virt. eigenvalues --    0.33840   0.34625   0.35488   0.35598   0.36043
 Alpha virt. eigenvalues --    0.38050   0.38109   0.39835   0.40156   0.40471
 Alpha virt. eigenvalues --    0.40903   0.42104   0.44630   0.45266   0.47699
 Alpha virt. eigenvalues --    0.47890   0.48537   0.49021   0.49110   0.50711
 Alpha virt. eigenvalues --    0.52328   0.52559   0.53309   0.53697   0.53977
 Alpha virt. eigenvalues --    0.54277   0.54989   0.55247   0.55788   0.56073
 Alpha virt. eigenvalues --    0.56322   0.56436   0.57288   0.57797   0.57994
 Alpha virt. eigenvalues --    0.58489   0.58829   0.59687   0.59777   0.59998
 Alpha virt. eigenvalues --    0.60789   0.60868   0.61789   0.62257   0.62766
 Alpha virt. eigenvalues --    0.63479   0.64175   0.65147   0.66108   0.66617
 Alpha virt. eigenvalues --    0.67511   0.67973   0.68078   0.69426   0.69894
 Alpha virt. eigenvalues --    0.70261   0.70432   0.71100   0.71532   0.72506
 Alpha virt. eigenvalues --    0.72623   0.72679   0.72826   0.73078   0.74019
 Alpha virt. eigenvalues --    0.74766   0.75246   0.75517   0.75527   0.75825
 Alpha virt. eigenvalues --    0.76469   0.76811   0.77162   0.78212   0.78273
 Alpha virt. eigenvalues --    0.78966   0.80200   0.80250   0.81116   0.82017
 Alpha virt. eigenvalues --    0.82463   0.82753   0.84094   0.84505   0.85228
 Alpha virt. eigenvalues --    0.85345   0.86390   0.87451   0.88386   0.88669
 Alpha virt. eigenvalues --    0.89585   0.89655   0.90216   0.91202   0.91381
 Alpha virt. eigenvalues --    0.91542   0.93345   0.93632   0.94099   0.94269
 Alpha virt. eigenvalues --    0.95618   0.96104   0.96964   0.97583   0.97759
 Alpha virt. eigenvalues --    0.98660   0.98888   0.99995   1.00137   1.01437
 Alpha virt. eigenvalues --    1.02087   1.02133   1.03492   1.03557   1.05029
 Alpha virt. eigenvalues --    1.05108   1.07288   1.07607   1.09453   1.09581
 Alpha virt. eigenvalues --    1.10586   1.11198   1.11331   1.13382   1.13854
 Alpha virt. eigenvalues --    1.14269   1.16458   1.16861   1.17654   1.19397
 Alpha virt. eigenvalues --    1.19547   1.21711   1.22636   1.22894   1.26125
 Alpha virt. eigenvalues --    1.29617   1.31281   1.32829   1.33582   1.36341
 Alpha virt. eigenvalues --    1.37663   1.39484   1.39517   1.42713   1.46210
 Alpha virt. eigenvalues --    1.46584   1.48223   1.48804   1.49143   1.50150
 Alpha virt. eigenvalues --    1.50235   1.51739   1.51768   1.53142   1.53852
 Alpha virt. eigenvalues --    1.54784   1.55164   1.55788   1.56018   1.56909
 Alpha virt. eigenvalues --    1.57369   1.58363   1.59276   1.59830   1.60691
 Alpha virt. eigenvalues --    1.61318   1.61437   1.61530   1.63672   1.64358
 Alpha virt. eigenvalues --    1.65748   1.67463   1.67570   1.69816   1.70530
 Alpha virt. eigenvalues --    1.71032   1.72103   1.72835   1.73613   1.74610
 Alpha virt. eigenvalues --    1.74968   1.75931   1.76093   1.76160   1.78199
 Alpha virt. eigenvalues --    1.78443   1.82205   1.82757   1.83005   1.83265
 Alpha virt. eigenvalues --    1.85144   1.85660   1.85803   1.87132   1.88323
 Alpha virt. eigenvalues --    1.89447   1.89538   1.90393   1.91565   1.92371
 Alpha virt. eigenvalues --    1.92424   1.92653   1.93924   1.94576   1.95166
 Alpha virt. eigenvalues --    1.95369   1.95608   1.97280   1.97532   1.97787
 Alpha virt. eigenvalues --    1.99538   2.01839   2.02734   2.03513   2.04274
 Alpha virt. eigenvalues --    2.05377   2.06329   2.06633   2.08238   2.08245
 Alpha virt. eigenvalues --    2.09663   2.10651   2.10693   2.11950   2.12645
 Alpha virt. eigenvalues --    2.14353   2.15040   2.18293   2.19151   2.20115
 Alpha virt. eigenvalues --    2.21316   2.22335   2.24453   2.26496   2.27023
 Alpha virt. eigenvalues --    2.30750   2.30776   2.32190   2.34589   2.34679
 Alpha virt. eigenvalues --    2.36221   2.40261   2.41010   2.42361   2.42548
 Alpha virt. eigenvalues --    2.43343   2.45214   2.46685   2.46769   2.47872
 Alpha virt. eigenvalues --    2.49371   2.52075   2.54599   2.56304   2.58248
 Alpha virt. eigenvalues --    2.59056   2.65475   2.65678   2.67058   2.69083
 Alpha virt. eigenvalues --    2.69620   2.69758   2.70629   2.71087   2.71942
 Alpha virt. eigenvalues --    2.72192   2.73171   2.73425   2.74326   2.74463
 Alpha virt. eigenvalues --    2.75225   2.75305   2.75525   2.75932   2.76148
 Alpha virt. eigenvalues --    2.76930   2.77514   2.77723   2.78748   2.79193
 Alpha virt. eigenvalues --    2.79815   2.80229   2.82623   2.83434   2.83662
 Alpha virt. eigenvalues --    2.85615   2.86706   2.87188   2.88082   2.88315
 Alpha virt. eigenvalues --    2.88695   2.89199   2.91197   2.94038   2.94128
 Alpha virt. eigenvalues --    2.94895   2.95121   2.97440   2.97682   3.01307
 Alpha virt. eigenvalues --    3.01633   3.04949   3.06617   3.10084   3.11988
 Alpha virt. eigenvalues --    3.14970   3.16481   3.22162   3.23050   3.23283
 Alpha virt. eigenvalues --    3.24797   3.25501   3.29918   3.30518   3.34806
 Alpha virt. eigenvalues --    3.35007   3.36722   3.38733   3.39353   3.40525
 Alpha virt. eigenvalues --    3.44514   3.45139   3.48005   3.50671   3.50767
 Alpha virt. eigenvalues --    3.55406   3.55423   3.57270   3.58232   3.58357
 Alpha virt. eigenvalues --    3.65254   3.65347   3.66170   3.66992   3.73362
 Alpha virt. eigenvalues --    3.75788   3.84163   3.97968   4.04607   4.04614
 Alpha virt. eigenvalues --    4.06100   4.06776   4.08780   4.09572   4.09773
 Alpha virt. eigenvalues --    4.19389   4.20687   4.25014   4.32130   4.41470
 Alpha virt. eigenvalues --    4.60493   4.79189   4.79328   4.79758   4.84284
 Alpha virt. eigenvalues --    4.85797  23.48703  23.65474  23.75492  23.85014
 Alpha virt. eigenvalues --   23.89650  23.94497  23.96407  23.97011  23.97390
 Alpha virt. eigenvalues --   23.98137  23.98920  24.03520  24.03812  24.04041
 Alpha virt. eigenvalues --   24.04301  24.14283  24.14640  24.21696  24.21996
 Alpha virt. eigenvalues --   24.22195  24.22672  24.23049
          Condensed to atoms (all electrons):
 Mulliken charges:
               1
     1  C   -0.379011
     2  H    0.123756
     3  C    0.054362
     4  H    0.115562
     5  C    0.447723
     6  C    0.063661
     7  C   -0.484065
     8  H    0.149708
     9  C   -0.262110
    10  H    0.122290
    11  C   -0.321452
    12  H    0.116208
    13  C   -0.234569
    14  H    0.116516
    15  C    0.651925
    16  C    0.037060
    17  C   -0.434569
    18  H    0.117448
    19  C   -0.434668
    20  H    0.117446
    21  C    0.651883
    22  C    0.036499
    23  C   -0.234337
    24  H    0.116514
    25  C   -0.321384
    26  H    0.116205
    27  C    0.447922
    28  C    0.063287
    29  C   -0.484078
    30  H    0.149729
    31  C   -0.261748
    32  H    0.122280
    33  C   -0.379719
    34  H    0.123755
    35  C    0.054416
    36  H    0.115557
    37  Bq   0.000000
    38  Bq   0.000000
    39  Bq   0.000000
    40  Bq   0.000000
    41  Bq   0.000000
    42  Bq   0.000000
    43  Bq   0.000000
    44  Bq   0.000000
    45  Bq   0.000000
    46  Bq   0.000000
    47  Bq   0.000000
    48  Bq   0.000000
    49  Bq   0.000000
    50  Bq   0.000000
    51  Bq   0.000000
    52  Bq   0.000000
    53  Bq   0.000000
    54  Bq   0.000000
    55  Bq   0.000000
    56  Bq   0.000000
    57  Bq   0.000000
    58  Bq   0.000000
    59  Bq   0.000000
    60  Bq   0.000000
    61  Bq   0.000000
    62  Bq   0.000000
    63  Bq   0.000000
    64  Bq   0.000000
    65  Bq   0.000000
    66  Bq   0.000000
    67  Bq   0.000000
    68  Bq   0.000000
    69  Bq   0.000000
    70  Bq   0.000000
    71  Bq   0.000000
    72  Bq   0.000000
    73  Bq   0.000000
    74  Bq   0.000000
    75  Bq   0.000000
    76  Bq   0.000000
    77  Bq   0.000000
    78  Bq   0.000000
    79  Bq   0.000000
    80  Bq   0.000000
    81  Bq   0.000000
    82  Bq   0.000000
    83  Bq   0.000000
    84  Bq   0.000000
    85  Bq   0.000000
    86  Bq   0.000000
    87  Bq   0.000000
    88  Bq   0.000000
    89  Bq   0.000000
    90  Bq   0.000000
    91  Bq   0.000000
    92  Bq   0.000000
    93  Bq   0.000000
    94  Bq   0.000000
    95  Bq   0.000000
    96  Bq   0.000000
    97  Bq   0.000000
    98  Bq   0.000000
    99  Bq   0.000000
   100  Bq   0.000000
   101  Bq   0.000000
   102  Bq   0.000000
   103  Bq   0.000000
   104  Bq   0.000000
   105  Bq   0.000000
   106  Bq   0.000000
   107  Bq   0.000000
   108  Bq   0.000000
   109  Bq   0.000000
   110  Bq   0.000000
   111  Bq   0.000000
   112  Bq   0.000000
   113  Bq   0.000000
   114  Bq   0.000000
   115  Bq   0.000000
   116  Bq   0.000000
   117  Bq   0.000000
   118  Bq   0.000000
   119  Bq   0.000000
   120  Bq   0.000000
   121  Bq   0.000000
   122  Bq   0.000000
   123  Bq   0.000000
   124  Bq   0.000000
   125  Bq   0.000000
   126  Bq   0.000000
   127  Bq   0.000000
   128  Bq   0.000000
   129  Bq   0.000000
   130  Bq   0.000000
   131  Bq   0.000000
   132  Bq   0.000000
   133  Bq   0.000000
   134  Bq   0.000000
   135  Bq   0.000000
   136  Bq   0.000000
   137  Bq   0.000000
 Sum of Mulliken charges =  -0.00000
 Mulliken charges with hydrogens summed into heavy atoms:
               1
     1  C   -0.255255
     3  C    0.169924
     5  C    0.447723
     6  C    0.063661
     7  C   -0.484065
     9  C   -0.139820
    11  C   -0.205245
    13  C   -0.234569
    15  C    0.651925
    16  C    0.037060
    17  C   -0.434569
    19  C   -0.317222
    21  C    0.651883
    22  C    0.036499
    23  C   -0.117824
    25  C   -0.205179
    27  C    0.447922
    28  C    0.063287
    29  C   -0.334349
    31  C   -0.139468
    33  C   -0.255964
    35  C    0.169974
    37  Bq   0.000000
    38  Bq   0.000000
    39  Bq   0.000000
    40  Bq   0.000000
    41  Bq   0.000000
    42  Bq   0.000000
    43  Bq   0.000000
    44  Bq   0.000000
    45  Bq   0.000000
    46  Bq   0.000000
    47  Bq   0.000000
    48  Bq   0.000000
    49  Bq   0.000000
    50  Bq   0.000000
    51  Bq   0.000000
    52  Bq   0.000000
    53  Bq   0.000000
    54  Bq   0.000000
    55  Bq   0.000000
    56  Bq   0.000000
    57  Bq   0.000000
    58  Bq   0.000000
    59  Bq   0.000000
    60  Bq   0.000000
    61  Bq   0.000000
    62  Bq   0.000000
    63  Bq   0.000000
    64  Bq   0.000000
    65  Bq   0.000000
    66  Bq   0.000000
    67  Bq   0.000000
    68  Bq   0.000000
    69  Bq   0.000000
    70  Bq   0.000000
    71  Bq   0.000000
    72  Bq   0.000000
    73  Bq   0.000000
    74  Bq   0.000000
    75  Bq   0.000000
    76  Bq   0.000000
    77  Bq   0.000000
    78  Bq   0.000000
    79  Bq   0.000000
    80  Bq   0.000000
    81  Bq   0.000000
    82  Bq   0.000000
    83  Bq   0.000000
    84  Bq   0.000000
    85  Bq   0.000000
    86  Bq   0.000000
    87  Bq   0.000000
    88  Bq   0.000000
    89  Bq   0.000000
    90  Bq   0.000000
    91  Bq   0.000000
    92  Bq   0.000000
    93  Bq   0.000000
    94  Bq   0.000000
    95  Bq   0.000000
    96  Bq   0.000000
    97  Bq   0.116516
    98  Bq   0.149708
    99  Bq   0.000000
   100  Bq   0.000000
   101  Bq   0.000000
   102  Bq   0.000000
   103  Bq   0.000000
   104  Bq   0.000000
   105  Bq   0.000000
   106  Bq   0.000000
   107  Bq   0.000000
   108  Bq   0.000000
   109  Bq   0.000000
   110  Bq   0.000000
   111  Bq   0.000000
   112  Bq   0.000000
   113  Bq   0.000000
   114  Bq   0.000000
   115  Bq   0.000000
   116  Bq   0.000000
   117  Bq   0.000000
   118  Bq   0.000000
   119  Bq   0.000000
   120  Bq   0.000000
   121  Bq   0.000000
   122  Bq   0.000000
   123  Bq   0.000000
   124  Bq   0.000000
   125  Bq   0.000000
   126  Bq   0.000000
   127  Bq   0.000000
   128  Bq   0.000000
   129  Bq   0.000000
   130  Bq   0.000000
   131  Bq   0.000000
   132  Bq   0.000000
   133  Bq   0.000000
   134  Bq   0.000000
   135  Bq   0.000000
   136  Bq   0.000000
   137  Bq   0.117448
 Electronic spatial extent (au):  <R**2>=           5736.9270
 Charge=             -0.0000 electrons
 Dipole moment (field-independent basis, Debye):
    X=              0.0480    Y=              0.0854    Z=              0.0027  Tot=              0.0981
 Quadrupole moment (field-independent basis, Debye-Ang):
   XX=           -113.7065   YY=           -113.9465   ZZ=           -133.2659
   XY=             -0.3840   XZ=              3.2088   YZ=             -1.1827
 Traceless Quadrupole moment (field-independent basis, Debye-Ang):
   XX=              6.5998   YY=              6.3598   ZZ=            -12.9596
   XY=             -0.3840   XZ=              3.2088   YZ=             -1.1827
 Octapole moment (field-independent basis, Debye-Ang**2):
  XXX=            -16.4604  YYY=            -16.1937  ZZZ=             -1.7048  XYY=              2.5621
  XXY=             -6.5684  XXZ=             13.6585  XZZ=             -8.9438  YZZ=            -17.7184
  YYZ=            -13.2980  XYZ=              8.8042
 Hexadecapole moment (field-independent basis, Debye-Ang**3):
 XXXX=          -3951.1838 YYYY=          -3112.2266 ZZZZ=           -504.8224 XXXY=            340.6919
 XXXZ=            156.4869 YYYX=            335.5529 YYYZ=            -87.0842 ZZZX=            120.2213
 ZZZY=           -108.7256 XXYY=          -1176.4813 XXZZ=           -856.7341 YYZZ=           -665.7192
 XXYZ=            -68.8903 YYXZ=             48.1509 ZZXY=            153.0341
 N-N= 1.610917622655D+03 E-N=-5.186891081272D+03  KE= 8.436329715391D+02
 1\1\GINC-CALVANI\SP\RB3LYP\6-311+G(d,p)\C22H14\AARTIGAS\05-Aug-2020\0\
 \# rb3lyp/6-311+g** NMR\\Title\\0,1\C,0,-4.0500558,-0.5771862,0.813671
 2\H,0,-5.0263804,-1.0082727,1.002476\C,0,-3.9381552,0.6617804,0.240087
 6\H,0,-4.8252424,1.233889,-0.0111295\C,0,-2.676841,1.2433246,0.0057578
 \C,0,-1.4974121,0.5051527,0.2848253\C,0,-1.6508332,-0.7338728,0.940402
 6\H,0,-0.7713646,-1.2730967,1.2633753\C,0,-2.8898548,-1.2624035,1.1994
 307\H,0,-2.9683706,-2.2124563,1.7152676\C,0,-2.5773185,2.5963696,-0.41
 9293\H,0,-3.4870728,3.1412239,-0.6474055\C,0,-1.3741895,3.2147896,-0.4
 36403\H,0,-1.2997315,4.2742019,-0.6578144\C,0,-0.1719488,2.499409,-0.1
 734588\C,0,-0.2043917,1.1018437,0.0192689\C,0,1.0513491,3.204256,-0.06
 76222\H,0,1.0427344,4.2819499,-0.1896997\C,0,2.1942091,2.5487446,0.257
 9577\H,0,3.1168527,3.0912848,0.4334727\C,0,2.2216473,1.1336562,0.29349
 9\C,0,1.0486931,0.3945528,0.0302412\C,0,3.4483363,0.4614633,0.5573939\
 H,0,4.3095794,1.0606054,0.8334846\C,0,3.5427346,-0.8855926,0.4749463\H
 ,0,4.4731467,-1.3939704,0.7038822\C,0,2.4490052,-1.6474447,-0.0196319\
 C,0,1.2150704,-1.0057258,-0.3013573\C,0,0.2531113,-1.743444,-1.0216591
 \H,0,-0.6541356,-1.2535051,-1.3462847\C,0,0.4494193,-3.0628597,-1.3413
 779\H,0,-0.3083162,-3.5944309,-1.905406\C,0,1.6251726,-3.7207967,-0.95
 52541\H,0,1.7670048,-4.7687404,-1.1927019\C,0,2.6109872,-3.0144177,-0.
 318305\H,0,3.5525612,-3.4902813,-0.0646367\Bq,0,-1.4170169333,1.860148
 2,-0.1198838\Bq,0,-3.9777963981,-0.3178544247,1.36292202\Bq,0,-3.97293
 16269,0.166844735,1.2402718728\Bq,0,-3.9680668558,0.6515438947,1.11762
 17257\Bq,0,-3.9632020847,1.1362430544,0.9949715786\Bq,0,-3.9583373136,
 1.6209422141,0.8723214314\Bq,0,-3.9534725424,2.1056413738,0.7496712843
 \Bq,0,-3.9486077713,2.5903405335,0.6270211372\Bq,0,-3.9437430002,3.075
 0396931,0.50437099\Bq,0,-3.9388782291,3.5597388528,0.3817208429\Bq,0,-
 3.934013458,4.0444380125,0.2590706958\Bq,0,-3.4781892389,-0.3178544247
 ,1.3827383393\Bq,0,-3.4733244678,0.166844735,1.2600881922\Bq,0,-3.4684
 596966,0.6515438947,1.137438045\Bq,0,-3.4635949255,1.1362430544,1.0147
 878979\Bq,0,-3.4587301544,1.6209422141,0.8921377508\Bq,0,-3.4538653833
 ,2.1056413738,0.7694876036\Bq,0,-3.4490006122,2.5903405335,0.646837456
 5\Bq,0,-3.444135841,3.0750396931,0.5241873093\Bq,0,-3.4392710699,3.559
 7388528,0.4015371622\Bq,0,-3.4344062988,4.0444380125,0.2788870151\Bq,0
 ,-2.9785820797,-0.3178544247,1.4025546586\Bq,0,-2.9737173086,0.1668447
 35,1.2799045115\Bq,0,-2.9688525375,0.6515438947,1.1572543643\Bq,0,-2.9
 639877664,1.1362430544,1.0346042172\Bq,0,-2.9591229952,1.6209422141,0.
 9119540701\Bq,0,-2.9542582241,2.1056413738,0.7893039229\Bq,0,-2.949393
 453,2.5903405335,0.6666537758\Bq,0,-2.9445286819,3.0750396931,0.544003
 6287\Bq,0,-2.9396639108,3.5597388528,0.4213534815\Bq,0,-2.9347991396,4
 .0444380125,0.2987033344\Bq,0,-2.4789749206,-0.3178544247,1.4223709779
 \Bq,0,-2.4741101494,0.166844735,1.2997208308\Bq,0,-2.4692453783,0.6515
 438947,1.1770706837\Bq,0,-2.4643806072,1.1362430544,1.0544205365\Bq,0,
 -2.4595158361,1.6209422141,0.9317703894\Bq,0,-2.454651065,2.1056413738
 ,0.8091202423\Bq,0,-2.4497862938,2.5903405335,0.6864700951\Bq,0,-2.444
 9215227,3.0750396931,0.563819948\Bq,0,-2.4400567516,3.5597388528,0.441
 1698009\Bq,0,-2.4351919805,4.0444380125,0.3185196537\Bq,0,-1.979367761
 4,-0.3178544247,1.4421872973\Bq,0,-1.9745029903,0.166844735,1.31953715
 01\Bq,0,-1.9696382192,0.6515438947,1.196887003\Bq,0,-1.964773448,1.136
 2430544,1.0742368559\Bq,0,-1.9599086769,1.6209422141,0.9515867087\Bq,0
 ,-1.9550439058,2.1056413738,0.8289365616\Bq,0,-1.9501791347,2.59034053
 35,0.7062864144\Bq,0,-1.9453143635,3.0750396931,0.5836362673\Bq,0,-1.9
 404495924,3.5597388528,0.4609861202\Bq,0,-1.9355848213,4.0444380125,0.
 338335973\Bq,0,-1.4797606022,-0.3178544247,1.4620036166\Bq,0,-1.474895
 8311,0.166844735,1.3393534694\Bq,0,-1.47003106,0.6515438947,1.21670332
 23\Bq,0,-1.4651662889,1.1362430544,1.0940531752\Bq,0,-1.4603015177,1.6
 209422141,0.971403028\Bq,0,-1.4554367466,2.1056413738,0.8487528809\Bq,
 0,-1.4505719755,2.5903405335,0.7261027338\Bq,0,-1.4457072044,3.0750396
 931,0.6034525866\Bq,0,-1.4408424333,3.5597388528,0.4808024395\Bq,0,-1.
 4359776621,4.0444380125,0.3581522924\Bq,0,-0.9801534431,-0.3178544247,
 1.4818199359\Bq,0,-0.9752886719,0.166844735,1.3591697888\Bq,0,-0.97042
 39008,0.6515438947,1.2365196416\Bq,0,-0.9655591297,1.1362430544,1.1138
 694945\Bq,0,-0.9606943586,1.6209422141,0.9912193474\Bq,0,-0.9558295875
 ,2.1056413738,0.8685692002\Bq,0,-0.9509648163,2.5903405335,0.745919053
 1\Bq,0,-0.9461000452,3.0750396931,0.6232689059\Bq,0,-0.9412352741,3.55
 97388528,0.5006187588\Bq,0,-0.936370503,4.0444380125,0.3779686117\Bq,0
 ,-0.4805462839,-0.3178544247,1.5016362552\Bq,0,-0.4756815128,0.1668447
 35,1.3789861081\Bq,0,-0.4708167417,0.6515438947,1.2563359609\Bq,0,-0.4
 659519705,1.1362430544,1.1336858138\Bq,0,-0.4610871994,1.6209422141,1.
 0110356667\Bq,0,-0.4562224283,2.1056413738,0.8883855195\Bq,0,-0.451357
 6572,2.5903405335,0.7657353724\Bq,0,-0.4464928861,3.0750396931,0.64308
 52253\Bq,0,-0.4416281149,3.5597388528,0.5204350781\Bq,0,-0.4367633438,
 4.0444380125,0.397784931\Bq,0,0.0190608753,-0.3178544247,1.5214525745\
 Bq,0,0.0239256464,0.166844735,1.3988024274\Bq,0,0.0287904175,0.6515438
 947,1.2761522803\Bq,0,0.0336551886,1.1362430544,1.1535021331\Bq,0,0.03
 85199597,1.6209422141,1.030851986\Bq,0,0.0433847309,2.1056413738,0.908
 2018389\Bq,0,0.048249502,2.5903405335,0.7855516917\Bq,0,0.0531142731,3
 .0750396931,0.6629015446\Bq,0,0.0579790442,3.5597388528,0.5402513975\B
 q,0,0.0628438154,4.0444380125,0.4176012503\Bq,0,0.5186680344,-0.317854
 4247,1.5412688939\Bq,0,0.5235328055,0.166844735,1.4186187467\Bq,0,0.52
 83975767,0.6515438947,1.2959685996\Bq,0,0.5332623478,1.1362430544,1.17
 33184525\Bq,0,0.5381271189,1.6209422141,1.0506683053\Bq,0,0.54299189,2
 .1056413738,0.9280181582\Bq,0,0.5478566612,2.5903405335,0.805368011\Bq
 ,0,0.5527214323,3.0750396931,0.6827178639\Bq,0,0.5575862034,3.55973885
 28,0.5600677168\Bq,0,0.5624509745,4.0444380125,0.4374175696\\Version=E
 S64L-G16RevA.03\HF=-847.0032839\RMSD=7.689e-09\Dipole=0.0188975,0.0336
 152,0.0010509\Quadrupole=4.9068038,4.7283337,-9.6351376,-0.2854741,2.3
 856816,-0.8792762\PG=C01 [X(C22H14)]\\@


 THE WHOLE OF SCIENCE IS NOTHING MORE THAN A REFINEMENT OF EVERYDAY THINKING.
                                                              -- A. EINSTEIN
 Job cpu time:       0 days  2 hours 26 minutes 34.4 seconds.
 Elapsed time:       0 days  0 hours 18 minutes 39.7 seconds.
 File lengths (MBytes):  RWF=    187 Int=      0 D2E=      0 Chk=     26 Scr=      1
 Normal termination of Gaussian 16 at Wed Aug  5 22:35:05 2020.

real	18m39.882s
user	146m32.705s
sys	0m1.702s
